# vtk DataFile Version 2.0
mesh_uniform_3, Created by Gmsh 4.13.1 
ASCII
DATASET UNSTRUCTURED_GRID
POINTS 9261 double
0.1 0.1 0
0.1 0.1 0.1
0 0 0
0.1 0 0
0.1 0 0.1
0 0 0.1
0 0.1 0
0 0.1 0.1
0.2 0.1 0
0.2 0.1 0.1
0.2 0 0
0.2 0 0.1
0.3 0.1 0
0.3 0.1 0.1
0.3 0 0
0.3 0 0.1
0.4 0.1 0
0.4 0.1 0.1
0.4 0 0
0.4 0 0.1
0.5 0.1 0
0.5 0.1 0.1
0.5 0 0
0.5 0 0.1
0.6 0.1 0
0.6 0.1 0.1
0.6 0 0
0.6 0 0.1
0.7 0.1 0
0.7 0.1 0.1
0.7 0 0
0.7 0 0.1
0.8 0.1 0
0.8 0.1 0.1
0.8 0 0
0.8 0 0.1
0.9 0.1 0
0.9 0.1 0.1
0.9 0 0
0.9 0 0.1
1 0.1 0
1 0.1 0.1
1 0 0
1 0 0.1
0.1 0.2 0
0.1 0.2 0.1
0 0.2 0
0 0.2 0.1
0.2 0.2 0
0.2 0.2 0.1
0.3 0.2 0
0.3 0.2 0.1
0.4 0.2 0
0.4 0.2 0.1
0.5 0.2 0
0.5 0.2 0.1
0.6 0.2 0
0.6 0.2 0.1
0.7 0.2 0
0.7 0.2 0.1
0.8 0.2 0
0.8 0.2 0.1
0.9 0.2 0
0.9 0.2 0.1
1 0.2 0
1 0.2 0.1
0.1 0.3 0
0.1 0.3 0.1
0 0.3 0
0 0.3 0.1
0.2 0.3 0
0.2 0.3 0.1
0.3 0.3 0
0.3 0.3 0.1
0.4 0.3 0
0.4 0.3 0.1
0.5 0.3 0
0.5 0.3 0.1
0.6 0.3 0
0.6 0.3 0.1
0.7 0.3 0
0.7 0.3 0.1
0.8 0.3 0
0.8 0.3 0.1
0.9 0.3 0
0.9 0.3 0.1
1 0.3 0
1 0.3 0.1
0.1 0.4 0
0.1 0.4 0.1
0 0.4 0
0 0.4 0.1
0.2 0.4 0
0.2 0.4 0.1
0.3 0.4 0
0.3 0.4 0.1
0.4 0.4 0
0.4 0.4 0.1
0.5 0.4 0
0.5 0.4 0.1
0.6 0.4 0
0.6 0.4 0.1
0.7 0.4 0
0.7 0.4 0.1
0.8 0.4 0
0.8 0.4 0.1
0.9 0.4 0
0.9 0.4 0.1
1 0.4 0
1 0.4 0.1
0.1 0.5 0
0.1 0.5 0.1
0 0.5 0
0 0.5 0.1
0.2 0.5 0
0.2 0.5 0.1
0.3 0.5 0
0.3 0.5 0.1
0.4 0.5 0
0.4 0.5 0.1
0.5 0.5 0
0.5 0.5 0.1
0.6 0.5 0
0.6 0.5 0.1
0.7 0.5 0
0.7 0.5 0.1
0.8 0.5 0
0.8 0.5 0.1
0.9 0.5 0
0.9 0.5 0.1
1 0.5 0
1 0.5 0.1
0.1 0.6 0
0.1 0.6 0.1
0 0.6 0
0 0.6 0.1
0.2 0.6 0
0.2 0.6 0.1
0.3 0.6 0
0.3 0.6 0.1
0.4 0.6 0
0.4 0.6 0.1
0.5 0.6 0
0.5 0.6 0.1
0.6 0.6 0
0.6 0.6 0.1
0.7 0.6 0
0.7 0.6 0.1
0.8 0.6 0
0.8 0.6 0.1
0.9 0.6 0
0.9 0.6 0.1
1 0.6 0
1 0.6 0.1
0.1 0.7 0
0.1 0.7 0.1
0 0.7 0
0 0.7 0.1
0.2 0.7 0
0.2 0.7 0.1
0.3 0.7 0
0.3 0.7 0.1
0.4 0.7 0
0.4 0.7 0.1
0.5 0.7 0
0.5 0.7 0.1
0.6 0.7 0
0.6 0.7 0.1
0.7 0.7 0
0.7 0.7 0.1
0.8 0.7 0
0.8 0.7 0.1
0.9 0.7 0
0.9 0.7 0.1
1 0.7 0
1 0.7 0.1
0.1 0.8 0
0.1 0.8 0.1
0 0.8 0
0 0.8 0.1
0.2 0.8 0
0.2 0.8 0.1
0.3 0.8 0
0.3 0.8 0.1
0.4 0.8 0
0.4 0.8 0.1
0.5 0.8 0
0.5 0.8 0.1
0.6 0.8 0
0.6 0.8 0.1
0.7 0.8 0
0.7 0.8 0.1
0.8 0.8 0
0.8 0.8 0.1
0.9 0.8 0
0.9 0.8 0.1
1 0.8 0
1 0.8 0.1
0.1 0.9 0
0.1 0.9 0.1
0 0.9 0
0 0.9 0.1
0.2 0.9 0
0.2 0.9 0.1
0.3 0.9 0
0.3 0.9 0.1
0.4 0.9 0
0.4 0.9 0.1
0.5 0.9 0
0.5 0.9 0.1
0.6 0.9 0
0.6 0.9 0.1
0.7 0.9 0
0.7 0.9 0.1
0.8 0.9 0
0.8 0.9 0.1
0.9 0.9 0
0.9 0.9 0.1
1 0.9 0
1 0.9 0.1
0.1 1 0
0.1 1 0.1
0 1 0
0 1 0.1
0.2 1 0
0.2 1 0.1
0.3 1 0
0.3 1 0.1
0.4 1 0
0.4 1 0.1
0.5 1 0
0.5 1 0.1
0.6 1 0
0.6 1 0.1
0.7 1 0
0.7 1 0.1
0.8 1 0
0.8 1 0.1
0.9 1 0
0.9 1 0.1
1 1 0
1 1 0.1
0.1 0.1 0.2
0.1 0 0.2
0 0 0.2
0 0.1 0.2
0.2 0.1 0.2
0.2 0 0.2
0.3 0.1 0.2
0.3 0 0.2
0.4 0.1 0.2
0.4 0 0.2
0.5 0.1 0.2
0.5 0 0.2
0.6 0.1 0.2
0.6 0 0.2
0.7 0.1 0.2
0.7 0 0.2
0.8 0.1 0.2
0.8 0 0.2
0.9 0.1 0.2
0.9 0 0.2
1 0.1 0.2
1 0 0.2
0.1 0.2 0.2
0 0.2 0.2
0.2 0.2 0.2
0.3 0.2 0.2
0.4 0.2 0.2
0.5 0.2 0.2
0.6 0.2 0.2
0.7 0.2 0.2
0.8 0.2 0.2
0.9 0.2 0.2
1 0.2 0.2
0.1 0.3 0.2
0 0.3 0.2
0.2 0.3 0.2
0.3 0.3 0.2
0.4 0.3 0.2
0.5 0.3 0.2
0.6 0.3 0.2
0.7 0.3 0.2
0.8 0.3 0.2
0.9 0.3 0.2
1 0.3 0.2
0.1 0.4 0.2
0 0.4 0.2
0.2 0.4 0.2
0.3 0.4 0.2
0.4 0.4 0.2
0.5 0.4 0.2
0.6 0.4 0.2
0.7 0.4 0.2
0.8 0.4 0.2
0.9 0.4 0.2
1 0.4 0.2
0.1 0.5 0.2
0 0.5 0.2
0.2 0.5 0.2
0.3 0.5 0.2
0.4 0.5 0.2
0.5 0.5 0.2
0.6 0.5 0.2
0.7 0.5 0.2
0.8 0.5 0.2
0.9 0.5 0.2
1 0.5 0.2
0.1 0.6 0.2
0 0.6 0.2
0.2 0.6 0.2
0.3 0.6 0.2
0.4 0.6 0.2
0.5 0.6 0.2
0.6 0.6 0.2
0.7 0.6 0.2
0.8 0.6 0.2
0.9 0.6 0.2
1 0.6 0.2
0.1 0.7 0.2
0 0.7 0.2
0.2 0.7 0.2
0.3 0.7 0.2
0.4 0.7 0.2
0.5 0.7 0.2
0.6 0.7 0.2
0.7 0.7 0.2
0.8 0.7 0.2
0.9 0.7 0.2
1 0.7 0.2
0.1 0.8 0.2
0 0.8 0.2
0.2 0.8 0.2
0.3 0.8 0.2
0.4 0.8 0.2
0.5 0.8 0.2
0.6 0.8 0.2
0.7 0.8 0.2
0.8 0.8 0.2
0.9 0.8 0.2
1 0.8 0.2
0.1 0.9 0.2
0 0.9 0.2
0.2 0.9 0.2
0.3 0.9 0.2
0.4 0.9 0.2
0.5 0.9 0.2
0.6 0.9 0.2
0.7 0.9 0.2
0.8 0.9 0.2
0.9 0.9 0.2
1 0.9 0.2
0.1 1 0.2
0 1 0.2
0.2 1 0.2
0.3 1 0.2
0.4 1 0.2
0.5 1 0.2
0.6 1 0.2
0.7 1 0.2
0.8 1 0.2
0.9 1 0.2
1 1 0.2
0.1 0.1 0.3
0.1 0 0.3
0 0 0.3
0 0.1 0.3
0.2 0.1 0.3
0.2 0 0.3
0.3 0.1 0.3
0.3 0 0.3
0.4 0.1 0.3
0.4 0 0.3
0.5 0.1 0.3
0.5 0 0.3
0.6 0.1 0.3
0.6 0 0.3
0.7 0.1 0.3
0.7 0 0.3
0.8 0.1 0.3
0.8 0 0.3
0.9 0.1 0.3
0.9 0 0.3
1 0.1 0.3
1 0 0.3
0.1 0.2 0.3
0 0.2 0.3
0.2 0.2 0.3
0.3 0.2 0.3
0.4 0.2 0.3
0.5 0.2 0.3
0.6 0.2 0.3
0.7 0.2 0.3
0.8 0.2 0.3
0.9 0.2 0.3
1 0.2 0.3
0.1 0.3 0.3
0 0.3 0.3
0.2 0.3 0.3
0.3 0.3 0.3
0.4 0.3 0.3
0.5 0.3 0.3
0.6 0.3 0.3
0.7 0.3 0.3
0.8 0.3 0.3
0.9 0.3 0.3
1 0.3 0.3
0.1 0.4 0.3
0 0.4 0.3
0.2 0.4 0.3
0.3 0.4 0.3
0.4 0.4 0.3
0.5 0.4 0.3
0.6 0.4 0.3
0.7 0.4 0.3
0.8 0.4 0.3
0.9 0.4 0.3
1 0.4 0.3
0.1 0.5 0.3
0 0.5 0.3
0.2 0.5 0.3
0.3 0.5 0.3
0.4 0.5 0.3
0.5 0.5 0.3
0.6 0.5 0.3
0.7 0.5 0.3
0.8 0.5 0.3
0.9 0.5 0.3
1 0.5 0.3
0.1 0.6 0.3
0 0.6 0.3
0.2 0.6 0.3
0.3 0.6 0.3
0.4 0.6 0.3
0.5 0.6 0.3
0.6 0.6 0.3
0.7 0.6 0.3
0.8 0.6 0.3
0.9 0.6 0.3
1 0.6 0.3
0.1 0.7 0.3
0 0.7 0.3
0.2 0.7 0.3
0.3 0.7 0.3
0.4 0.7 0.3
0.5 0.7 0.3
0.6 0.7 0.3
0.7 0.7 0.3
0.8 0.7 0.3
0.9 0.7 0.3
1 0.7 0.3
0.1 0.8 0.3
0 0.8 0.3
0.2 0.8 0.3
0.3 0.8 0.3
0.4 0.8 0.3
0.5 0.8 0.3
0.6 0.8 0.3
0.7 0.8 0.3
0.8 0.8 0.3
0.9 0.8 0.3
1 0.8 0.3
0.1 0.9 0.3
0 0.9 0.3
0.2 0.9 0.3
0.3 0.9 0.3
0.4 0.9 0.3
0.5 0.9 0.3
0.6 0.9 0.3
0.7 0.9 0.3
0.8 0.9 0.3
0.9 0.9 0.3
1 0.9 0.3
0.1 1 0.3
0 1 0.3
0.2 1 0.3
0.3 1 0.3
0.4 1 0.3
0.5 1 0.3
0.6 1 0.3
0.7 1 0.3
0.8 1 0.3
0.9 1 0.3
1 1 0.3
0.1 0.1 0.4
0.1 0 0.4
0 0 0.4
0 0.1 0.4
0.2 0.1 0.4
0.2 0 0.4
0.3 0.1 0.4
0.3 0 0.4
0.4 0.1 0.4
0.4 0 0.4
0.5 0.1 0.4
0.5 0 0.4
0.6 0.1 0.4
0.6 0 0.4
0.7 0.1 0.4
0.7 0 0.4
0.8 0.1 0.4
0.8 0 0.4
0.9 0.1 0.4
0.9 0 0.4
1 0.1 0.4
1 0 0.4
0.1 0.2 0.4
0 0.2 0.4
0.2 0.2 0.4
0.3 0.2 0.4
0.4 0.2 0.4
0.5 0.2 0.4
0.6 0.2 0.4
0.7 0.2 0.4
0.8 0.2 0.4
0.9 0.2 0.4
1 0.2 0.4
0.1 0.3 0.4
0 0.3 0.4
0.2 0.3 0.4
0.3 0.3 0.4
0.4 0.3 0.4
0.5 0.3 0.4
0.6 0.3 0.4
0.7 0.3 0.4
0.8 0.3 0.4
0.9 0.3 0.4
1 0.3 0.4
0.1 0.4 0.4
0 0.4 0.4
0.2 0.4 0.4
0.3 0.4 0.4
0.4 0.4 0.4
0.5 0.4 0.4
0.6 0.4 0.4
0.7 0.4 0.4
0.8 0.4 0.4
0.9 0.4 0.4
1 0.4 0.4
0.1 0.5 0.4
0 0.5 0.4
0.2 0.5 0.4
0.3 0.5 0.4
0.4 0.5 0.4
0.5 0.5 0.4
0.6 0.5 0.4
0.7 0.5 0.4
0.8 0.5 0.4
0.9 0.5 0.4
1 0.5 0.4
0.1 0.6 0.4
0 0.6 0.4
0.2 0.6 0.4
0.3 0.6 0.4
0.4 0.6 0.4
0.5 0.6 0.4
0.6 0.6 0.4
0.7 0.6 0.4
0.8 0.6 0.4
0.9 0.6 0.4
1 0.6 0.4
0.1 0.7 0.4
0 0.7 0.4
0.2 0.7 0.4
0.3 0.7 0.4
0.4 0.7 0.4
0.5 0.7 0.4
0.6 0.7 0.4
0.7 0.7 0.4
0.8 0.7 0.4
0.9 0.7 0.4
1 0.7 0.4
0.1 0.8 0.4
0 0.8 0.4
0.2 0.8 0.4
0.3 0.8 0.4
0.4 0.8 0.4
0.5 0.8 0.4
0.6 0.8 0.4
0.7 0.8 0.4
0.8 0.8 0.4
0.9 0.8 0.4
1 0.8 0.4
0.1 0.9 0.4
0 0.9 0.4
0.2 0.9 0.4
0.3 0.9 0.4
0.4 0.9 0.4
0.5 0.9 0.4
0.6 0.9 0.4
0.7 0.9 0.4
0.8 0.9 0.4
0.9 0.9 0.4
1 0.9 0.4
0.1 1 0.4
0 1 0.4
0.2 1 0.4
0.3 1 0.4
0.4 1 0.4
0.5 1 0.4
0.6 1 0.4
0.7 1 0.4
0.8 1 0.4
0.9 1 0.4
1 1 0.4
0.1 0.1 0.5
0.1 0 0.5
0 0 0.5
0 0.1 0.5
0.2 0.1 0.5
0.2 0 0.5
0.3 0.1 0.5
0.3 0 0.5
0.4 0.1 0.5
0.4 0 0.5
0.5 0.1 0.5
0.5 0 0.5
0.6 0.1 0.5
0.6 0 0.5
0.7 0.1 0.5
0.7 0 0.5
0.8 0.1 0.5
0.8 0 0.5
0.9 0.1 0.5
0.9 0 0.5
1 0.1 0.5
1 0 0.5
0.1 0.2 0.5
0 0.2 0.5
0.2 0.2 0.5
0.3 0.2 0.5
0.4 0.2 0.5
0.5 0.2 0.5
0.6 0.2 0.5
0.7 0.2 0.5
0.8 0.2 0.5
0.9 0.2 0.5
1 0.2 0.5
0.1 0.3 0.5
0 0.3 0.5
0.2 0.3 0.5
0.3 0.3 0.5
0.4 0.3 0.5
0.5 0.3 0.5
0.6 0.3 0.5
0.7 0.3 0.5
0.8 0.3 0.5
0.9 0.3 0.5
1 0.3 0.5
0.1 0.4 0.5
0 0.4 0.5
0.2 0.4 0.5
0.3 0.4 0.5
0.4 0.4 0.5
0.5 0.4 0.5
0.6 0.4 0.5
0.7 0.4 0.5
0.8 0.4 0.5
0.9 0.4 0.5
1 0.4 0.5
0.1 0.5 0.5
0 0.5 0.5
0.2 0.5 0.5
0.3 0.5 0.5
0.4 0.5 0.5
0.5 0.5 0.5
0.6 0.5 0.5
0.7 0.5 0.5
0.8 0.5 0.5
0.9 0.5 0.5
1 0.5 0.5
0.1 0.6 0.5
0 0.6 0.5
0.2 0.6 0.5
0.3 0.6 0.5
0.4 0.6 0.5
0.5 0.6 0.5
0.6 0.6 0.5
0.7 0.6 0.5
0.8 0.6 0.5
0.9 0.6 0.5
1 0.6 0.5
0.1 0.7 0.5
0 0.7 0.5
0.2 0.7 0.5
0.3 0.7 0.5
0.4 0.7 0.5
0.5 0.7 0.5
0.6 0.7 0.5
0.7 0.7 0.5
0.8 0.7 0.5
0.9 0.7 0.5
1 0.7 0.5
0.1 0.8 0.5
0 0.8 0.5
0.2 0.8 0.5
0.3 0.8 0.5
0.4 0.8 0.5
0.5 0.8 0.5
0.6 0.8 0.5
0.7 0.8 0.5
0.8 0.8 0.5
0.9 0.8 0.5
1 0.8 0.5
0.1 0.9 0.5
0 0.9 0.5
0.2 0.9 0.5
0.3 0.9 0.5
0.4 0.9 0.5
0.5 0.9 0.5
0.6 0.9 0.5
0.7 0.9 0.5
0.8 0.9 0.5
0.9 0.9 0.5
1 0.9 0.5
0.1 1 0.5
0 1 0.5
0.2 1 0.5
0.3 1 0.5
0.4 1 0.5
0.5 1 0.5
0.6 1 0.5
0.7 1 0.5
0.8 1 0.5
0.9 1 0.5
1 1 0.5
0.1 0.1 0.6
0.1 0 0.6
0 0 0.6
0 0.1 0.6
0.2 0.1 0.6
0.2 0 0.6
0.3 0.1 0.6
0.3 0 0.6
0.4 0.1 0.6
0.4 0 0.6
0.5 0.1 0.6
0.5 0 0.6
0.6 0.1 0.6
0.6 0 0.6
0.7 0.1 0.6
0.7 0 0.6
0.8 0.1 0.6
0.8 0 0.6
0.9 0.1 0.6
0.9 0 0.6
1 0.1 0.6
1 0 0.6
0.1 0.2 0.6
0 0.2 0.6
0.2 0.2 0.6
0.3 0.2 0.6
0.4 0.2 0.6
0.5 0.2 0.6
0.6 0.2 0.6
0.7 0.2 0.6
0.8 0.2 0.6
0.9 0.2 0.6
1 0.2 0.6
0.1 0.3 0.6
0 0.3 0.6
0.2 0.3 0.6
0.3 0.3 0.6
0.4 0.3 0.6
0.5 0.3 0.6
0.6 0.3 0.6
0.7 0.3 0.6
0.8 0.3 0.6
0.9 0.3 0.6
1 0.3 0.6
0.1 0.4 0.6
0 0.4 0.6
0.2 0.4 0.6
0.3 0.4 0.6
0.4 0.4 0.6
0.5 0.4 0.6
0.6 0.4 0.6
0.7 0.4 0.6
0.8 0.4 0.6
0.9 0.4 0.6
1 0.4 0.6
0.1 0.5 0.6
0 0.5 0.6
0.2 0.5 0.6
0.3 0.5 0.6
0.4 0.5 0.6
0.5 0.5 0.6
0.6 0.5 0.6
0.7 0.5 0.6
0.8 0.5 0.6
0.9 0.5 0.6
1 0.5 0.6
0.1 0.6 0.6
0 0.6 0.6
0.2 0.6 0.6
0.3 0.6 0.6
0.4 0.6 0.6
0.5 0.6 0.6
0.6 0.6 0.6
0.7 0.6 0.6
0.8 0.6 0.6
0.9 0.6 0.6
1 0.6 0.6
0.1 0.7 0.6
0 0.7 0.6
0.2 0.7 0.6
0.3 0.7 0.6
0.4 0.7 0.6
0.5 0.7 0.6
0.6 0.7 0.6
0.7 0.7 0.6
0.8 0.7 0.6
0.9 0.7 0.6
1 0.7 0.6
0.1 0.8 0.6
0 0.8 0.6
0.2 0.8 0.6
0.3 0.8 0.6
0.4 0.8 0.6
0.5 0.8 0.6
0.6 0.8 0.6
0.7 0.8 0.6
0.8 0.8 0.6
0.9 0.8 0.6
1 0.8 0.6
0.1 0.9 0.6
0 0.9 0.6
0.2 0.9 0.6
0.3 0.9 0.6
0.4 0.9 0.6
0.5 0.9 0.6
0.6 0.9 0.6
0.7 0.9 0.6
0.8 0.9 0.6
0.9 0.9 0.6
1 0.9 0.6
0.1 1 0.6
0 1 0.6
0.2 1 0.6
0.3 1 0.6
0.4 1 0.6
0.5 1 0.6
0.6 1 0.6
0.7 1 0.6
0.8 1 0.6
0.9 1 0.6
1 1 0.6
0.1 0.1 0.7
0.1 0 0.7
0 0 0.7
0 0.1 0.7
0.2 0.1 0.7
0.2 0 0.7
0.3 0.1 0.7
0.3 0 0.7
0.4 0.1 0.7
0.4 0 0.7
0.5 0.1 0.7
0.5 0 0.7
0.6 0.1 0.7
0.6 0 0.7
0.7 0.1 0.7
0.7 0 0.7
0.8 0.1 0.7
0.8 0 0.7
0.9 0.1 0.7
0.9 0 0.7
1 0.1 0.7
1 0 0.7
0.1 0.2 0.7
0 0.2 0.7
0.2 0.2 0.7
0.3 0.2 0.7
0.4 0.2 0.7
0.5 0.2 0.7
0.6 0.2 0.7
0.7 0.2 0.7
0.8 0.2 0.7
0.9 0.2 0.7
1 0.2 0.7
0.1 0.3 0.7
0 0.3 0.7
0.2 0.3 0.7
0.3 0.3 0.7
0.4 0.3 0.7
0.5 0.3 0.7
0.6 0.3 0.7
0.7 0.3 0.7
0.8 0.3 0.7
0.9 0.3 0.7
1 0.3 0.7
0.1 0.4 0.7
0 0.4 0.7
0.2 0.4 0.7
0.3 0.4 0.7
0.4 0.4 0.7
0.5 0.4 0.7
0.6 0.4 0.7
[...]
POINT_DATA 9261
SCALARS sol float
LOOKUP_TABLE default
1.3993e-43
0.054545
4.89319e-44
7.15632e-44
0.055432
0.0564926
7.15371e-44
0.0554297
1.38651e-43
0.0540925
7.08899e-44
0.0549576
1.37991e-43
0.0538444
7.05516e-44
0.0547055
1.37655e-43
0.0537169
7.03799e-44
0.0545771
1.37553e-43
0.0536798
7.03255e-44
0.0545399
1.37663e-43
0.0537261
7.03765e-44
0.0545867
1.38011e-43
0.0538661
7.05454e-44
0.0547289
1.38698e-43
0.054136
7.08881e-44
0.055009
1.40053e-43
0.0546289
7.16626e-44
0.0555637
7.17368e-44
0.0555597
2.48753e-44
0.0570331
1.38652e-43
0.0540911
7.08621e-44
0.0549542
1.37411e-43
0.0536522
1.36765e-43
0.0534091
1.36434e-43
0.0532831
1.36332e-43
0.0532457
1.36437e-43
0.0532901
1.36772e-43
0.0534247
1.3742e-43
0.0536799
1.38658e-43
0.0541347
7.09487e-44
0.0550062
1.37993e-43
0.0538422
7.05241e-44
0.0547016
1.36766e-43
0.0534084
1.36128e-43
0.0531681
1.35799e-43
0.053043
1.35696e-43
0.0530051
1.35796e-43
0.0530472
1.36118e-43
0.0531772
1.36742e-43
0.0534235
1.37941e-43
0.0538641
7.05792e-44
0.0547247
1.3766e-43
0.0537146
7.03545e-44
0.0545734
1.36438e-43
0.0532822
1.35802e-43
0.0530428
1.35473e-43
0.0529177
1.35368e-43
0.052879
1.35463e-43
0.0529193
1.35777e-43
0.0530462
1.36389e-43
0.0532879
1.37574e-43
0.0537232
7.03947e-44
0.0545808
1.37563e-43
0.0536777
7.03039e-44
0.0545366
1.3634e-43
0.053245
1.35702e-43
0.053005
1.35372e-43
0.052879
1.35263e-43
0.0528391
1.35355e-43
0.052878
1.35664e-43
0.0530031
1.3627e-43
0.0532426
1.37451e-43
0.053676
7.03341e-44
0.0545326
1.3768e-43
0.0537242
7.03615e-44
0.054584
1.36452e-43
0.0532894
1.35809e-43
0.0530473
1.35473e-43
0.0529196
1.35361e-43
0.0528782
1.35449e-43
0.052916
1.35757e-43
0.0530401
1.36361e-43
0.0532791
1.37541e-43
0.0537121
7.03814e-44
0.0545686
1.38039e-43
0.0538642
7.05426e-44
0.054727
1.36797e-43
0.0534242
1.36142e-43
0.0531775
1.35798e-43
0.0530467
1.35681e-43
0.0530036
1.35767e-43
0.0530404
1.36074e-43
0.0531645
1.36681e-43
0.0534042
1.37865e-43
0.0538385
7.05471e-44
0.0546958
1.38745e-43
0.0541337
7.09102e-44
0.0550074
1.37464e-43
0.0536796
1.36785e-43
0.0534242
1.3643e-43
0.0532888
1.36307e-43
0.0532435
1.36392e-43
0.0532797
1.367e-43
0.0534045
1.37313e-43
0.0536467
1.38511e-43
0.0540857
7.08792e-44
0.0549465
1.40121e-43
0.0546265
7.17083e-44
0.0555606
1.38731e-43
0.054135
1.38014e-43
0.0538654
1.37645e-43
0.0537248
1.37517e-43
0.0536775
1.37601e-43
0.0537134
1.37913e-43
0.0538395
1.38535e-43
0.0540863
1.39763e-43
0.0545375
7.15426e-44
0.0554172
7.17252e-44
0.0555614
2.48702e-44
0.0570311
7.09366e-44
0.055011
7.05673e-44
0.054731
7.03827e-44
0.0545876
7.03218e-44
0.0545397
7.03689e-44
0.0545759
7.05343e-44
0.0547033
7.0866e-44
0.0549544
7.15291e-44
0.0554244
4.89466e-44
0.0564792
0.103308
0.104372
0.105649
0.104374
0.102614
0.103649
0.10219
0.103219
0.101963
0.102991
0.101897
0.102924
0.101982
0.103011
0.102234
0.103267
0.102694
0.103743
0.103445
0.104567
0.104563
0.106213
0.102614
0.10365
0.10194
0.101525
0.1013
0.101233
0.101315
0.101557
0.101995
0.102693
0.103742
0.102189
0.103219
0.101524
0.101113
0.10089
0.100822
0.1009
0.101134
0.101557
0.102233
0.103266
0.101962
0.10299
0.101299
0.10089
0.100666
0.100597
0.100671
0.1009
0.101314
0.101982
0.10301
0.101895
0.102924
0.101231
0.100821
0.100596
0.100524
0.100596
0.100821
0.101232
0.101896
0.102922
0.10198
0.10301
0.101313
0.100899
0.100671
0.100596
0.100666
0.100889
0.101299
0.101962
0.102988
0.102231
0.103266
0.101555
0.101133
0.100899
0.100821
0.100889
0.101112
0.101523
0.102188
0.103216
0.10269
0.103741
0.101992
0.101556
0.101314
0.101232
0.101299
0.101523
0.101939
0.102612
0.103644
0.103442
0.104564
0.102692
0.102233
0.101983
0.101897
0.101963
0.10219
0.102613
0.103305
0.104365
0.104563
0.106212
0.103743
0.103269
0.103014
0.102927
0.102993
0.103222
0.10365
0.104369
0.105646
0.14632
0.147443
0.148787
0.147446
0.145511
0.146602
0.144982
0.146067
0.144688
0.145771
0.144602
0.145684
0.144715
0.145799
0.14504
0.14613
0.145613
0.14672
0.146484
0.147665
0.147663
0.149364
0.145512
0.146604
0.144725
0.144206
0.143915
0.143827
0.143936
0.14425
0.144797
0.145612
0.146719
0.144982
0.146067
0.144206
0.143693
0.143403
0.143314
0.143417
0.143722
0.14425
0.14504
0.14613
0.144688
0.145771
0.143914
0.143403
0.143113
0.143022
0.14312
0.143417
0.143936
0.144714
0.145799
0.1446
0.145684
0.143826
0.143313
0.143021
0.142927
0.143022
0.143314
0.143827
0.144601
0.145684
0.144713
0.145799
0.143934
0.143416
0.14312
0.143021
0.143113
0.143404
0.143915
0.144688
0.14577
0.145038
0.146129
0.144248
0.14372
0.143416
0.143314
0.143403
0.143693
0.144206
0.144982
0.146065
0.14561
0.146718
0.144795
0.144249
0.143935
0.143827
0.143915
0.144206
0.144725
0.14551
0.1466
0.146482
0.147663
0.145611
0.14504
0.144715
0.144602
0.144689
0.144983
0.145511
0.146318
0.147439
0.147663
0.149364
0.146719
0.146131
0.145801
0.145687
0.145774
0.146069
0.146604
0.147441
0.148789
0.183686
0.184833
0.186206
0.184836
0.18282
0.183935
0.182232
0.18334
0.181897
0.183003
0.181797
0.182903
0.181928
0.183036
0.1823
0.183414
0.182935
0.184067
0.183865
0.185071
0.185069
0.186792
0.182821
0.183937
0.181979
0.181401
0.181069
0.180968
0.181094
0.181453
0.182061
0.182934
0.184066
0.182233
0.183342
0.181401
0.18083
0.1805
0.180397
0.180516
0.180864
0.181453
0.182299
0.183414
0.181897
0.183004
0.181069
0.180499
0.180169
0.180063
0.180177
0.180517
0.181094
0.181928
0.183037
0.181797
0.182904
0.180967
0.180396
0.180062
0.179953
0.180063
0.180397
0.180969
0.181797
0.182904
0.181927
0.183036
0.181092
0.180515
0.180176
0.180063
0.180169
0.1805
0.18107
0.181897
0.183003
0.182297
0.183413
0.181451
0.180863
0.180516
0.180397
0.1805
0.180831
0.181402
0.182232
0.18334
0.182932
0.184065
0.182059
0.181452
0.181093
0.180968
0.18107
0.181402
0.181979
0.182819
0.183934
0.183863
0.185069
0.182933
0.182299
0.181928
0.181798
0.181898
0.182233
0.18282
0.183684
0.184831
0.185069
0.186791
0.184066
0.183414
0.183038
0.182906
0.183006
0.183342
0.183936
0.184832
0.18621
0.215471
0.21663
0.218017
0.216633
0.214574
0.215701
0.213953
0.215073
0.213593
0.214711
0.213485
0.214603
0.213627
0.214747
0.214026
0.215152
0.214697
0.215841
0.215658
0.216876
0.216875
0.218609
0.214576
0.215704
0.213703
0.213092
0.212736
0.212626
0.212763
0.213149
0.213792
0.214696
0.215841
0.213954
0.215074
0.213093
0.212488
0.212133
0.212021
0.212151
0.212525
0.213149
0.214025
0.215152
0.213593
0.214712
0.212736
0.212133
0.211777
0.211662
0.211786
0.212151
0.212763
0.213627
0.214748
0.213485
0.214604
0.212626
0.212021
0.211662
0.211543
0.211663
0.212022
0.212627
0.213485
0.214604
0.213626
0.214747
0.212762
0.21215
0.211786
0.211662
0.211777
0.212133
0.212736
0.213593
0.214711
0.214024
0.215151
0.213147
0.212524
0.212151
0.212021
0.212133
0.212488
0.213092
0.213953
0.215072
0.214695
0.21584
0.213791
0.213148
0.212762
0.212627
0.212736
0.213092
0.213703
0.214573
0.2157
0.215657
0.216875
0.214696
0.214025
0.213627
0.213486
0.213594
0.213953
0.214573
0.215468
0.216628
0.216876
0.218608
0.215841
0.215153
0.214749
0.214605
0.214713
0.215074
0.215702
0.216628
0.218021
0.241711
0.242879
0.244275
0.242882
0.240796
0.24193
0.240153
0.24128
0.239777
0.240902
0.239663
0.240789
0.239812
0.24094
0.240229
0.241363
0.240923
0.242075
0.241904
0.24313
0.243128
0.244869
0.240797
0.241933
0.239906
0.239274
0.238901
0.238786
0.238929
0.239333
0.239999
0.240922
0.242075
0.240154
0.241282
0.239274
0.238648
0.238277
0.23816
0.238296
0.238687
0.239333
0.240229
0.241363
0.239777
0.240903
0.238901
0.238277
0.237905
0.237785
0.237915
0.238296
0.23893
0.239813
0.240941
0.239663
0.24079
0.238786
0.23816
0.237784
0.23766
0.237785
0.23816
0.238786
0.239664
0.24079
0.239812
0.240941
0.238929
0.238296
0.237915
0.237784
0.237905
0.238277
0.238901
0.239777
0.240902
0.240228
0.241363
0.239332
0.238687
0.238296
0.23816
0.238277
0.238648
0.239273
0.240152
0.241279
0.240921
0.242074
0.239998
0.239332
0.238929
0.238786
0.238901
0.239273
0.239904
0.240794
0.241928
0.241903
0.243128
0.240922
0.240229
0.239813
0.239664
0.239777
0.240152
0.240793
0.241707
0.242874
0.24313
0.244869
0.242076
0.241364
0.240942
0.240791
0.240904
0.24128
0.241929
0.242874
0.244276
0.262431
0.263607
0.265013
0.26361
0.261498
0.26264
0.260837
0.261972
0.260449
0.261581
0.260331
0.261464
0.260485
0.26162
0.260915
0.262056
0.261628
0.262787
0.262627
0.263861
0.26386
0.265607
0.261499
0.262643
0.260591
0.259941
0.259556
0.259437
0.259585
0.260002
0.260687
0.261628
0.262789
0.260838
0.261973
0.259942
0.259298
0.258915
0.258794
0.258935
0.259339
0.260002
0.260916
0.262058
0.260449
0.261583
0.259557
0.258915
0.258531
0.258406
0.258541
0.258935
0.259586
0.260486
0.261622
0.260331
0.261465
0.259437
0.258794
0.258406
0.258277
0.258406
0.258794
0.259438
0.260332
0.261465
0.260485
0.261621
0.259585
0.258935
0.258541
0.258406
0.258531
0.258915
0.259556
0.260448
0.261582
0.260914
0.262057
0.260002
0.259339
0.258935
0.258794
0.258915
0.259297
0.25994
0.260835
0.26197
0.261627
0.262787
0.260687
0.260003
0.259586
0.259438
0.259556
0.25994
0.260588
0.261494
0.262636
0.262627
0.26386
0.261628
0.260916
0.260486
0.260332
0.260448
0.260835
0.261494
0.262424
0.263599
0.263861
0.265607
0.26279
0.262059
0.261623
0.261466
0.261582
0.261971
0.262637
0.263599
0.265009
0.27765
0.278842
0.280271
0.278846
0.276691
0.277848
0.27601
0.277158
0.275609
0.276756
0.275488
0.276635
0.275646
0.276796
0.276088
0.277244
0.276822
0.277996
0.277849
0.279097
0.279098
0.280859
0.276692
0.277851
0.27576
0.27509
0.274694
0.274571
0.274723
0.275152
0.275857
0.276824
0.278
0.276011
0.27716
0.275091
0.274428
0.274034
0.273909
0.274054
0.274469
0.275152
0.276091
0.277249
0.27561
0.276758
0.274694
0.274034
0.273638
0.27351
0.273648
0.274054
0.274724
0.275649
0.2768
0.275489
0.276637
0.274572
0.273909
0.27351
0.273377
0.27351
0.273908
0.274571
0.27549
0.276638
0.275647
0.276797
0.274724
0.274054
0.273649
0.27351
0.273638
0.274033
0.274693
0.275609
0.276757
0.276089
0.277246
0.275152
0.27447
0.274055
0.273909
0.274033
0.274426
0.275088
0.276007
0.277157
0.276822
0.277997
0.275858
0.275154
0.274725
0.274572
0.274693
0.275087
0.275754
0.276684
0.277841
0.277849
0.279097
0.276825
0.276092
0.275649
0.27549
0.275609
0.276006
0.276683
0.277638
0.278827
0.2791
0.280859
0.278001
0.27725
0.2768
0.276638
0.276757
0.277156
0.277841
0.278826
0.280252
0.287382
0.288635
0.29016
0.288638
0.286374
0.287586
0.285669
0.286872
0.285258
0.286459
0.285134
0.286335
0.285295
0.286499
0.285748
0.286958
0.286506
0.287733
0.287583
0.288885
0.2889
0.29072
0.286375
0.287587
0.285398
0.284706
0.284299
0.284173
0.284329
0.284768
0.285495
0.286509
0.287746
0.28567
0.286872
0.284707
0.284022
0.283617
0.283489
0.283637
0.284063
0.284768
0.285751
0.286967
0.285259
0.286459
0.2843
0.283618
0.283212
0.28308
0.283222
0.283637
0.284329
0.285297
0.286506
0.285135
0.286335
0.284175
0.28349
0.283081
0.282944
0.28308
0.283489
0.284173
0.285134
0.28634
0.285296
0.286499
0.28433
0.283639
0.283223
0.283081
0.283211
0.283616
0.284297
0.285256
0.286462
0.285749
0.286958
0.28477
0.284065
0.283639
0.28349
0.283617
0.28402
0.284702
0.285664
0.286871
0.286508
0.287735
0.285498
0.284771
0.284332
0.284175
0.284298
0.284702
0.28539
0.286362
0.287576
0.287586
0.288889
0.286513
0.285754
0.2853
0.285137
0.285259
0.285665
0.286363
0.287358
0.288603
0.2889
0.290717
0.287746
0.286967
0.286505
0.286339
0.286461
0.286869
0.287574
0.288601
0.290079
0.291553
0.293186
0.295504
0.293182
0.29049
0.292078
0.289771
0.291351
0.289355
0.290934
0.28923
0.290809
0.289393
0.290974
0.289851
0.291437
0.290623
0.292225
0.291763
0.293441
0.293496
0.296149
0.290491
0.292071
0.28946
0.288754
0.288342
0.288216
0.288372
0.288816
0.289558
0.290628
0.292239
0.289772
0.291344
0.288755
0.288057
0.287648
0.287519
0.287668
0.288099
0.288817
0.289855
0.291439
0.289356
0.290926
0.288344
0.287648
0.287238
0.287105
0.287248
0.287668
0.288373
0.289396
0.290971
0.289231
0.290801
0.288217
0.28752
0.287106
0.286968
0.287105
0.287518
0.288216
0.289231
0.290803
0.289394
0.290966
0.288374
0.28767
0.287249
0.287106
0.287238
0.287647
0.288341
0.289354
0.290925
0.289852
0.29143
0.288819
0.288101
0.28767
0.28752
0.287647
0.288055
0.28875
0.289766
0.291339
0.290625
0.292219
0.289562
0.288821
0.288376
0.288218
0.288342
0.288751
0.289452
0.290477
0.292058
0.291766
0.293435
0.290632
0.289857
0.289398
0.289233
0.289355
0.289767
0.290477
0.291525
0.293132
0.293511
0.296147
0.292256
0.291456
0.290988
0.29082
0.290942
0.291356
0.292075
0.293151
0.294827
0.027986
0.0284568
1.42284e-43
1.41063e-43
7.21754e-44
0.0282127
0.0288702
0.0549063
0.0552942
0.0558516
0.0293592
0.0286253
1.41046e-43
7.21769e-44
0.0282091
0.0549134
0.0288708
0.0558371
0.0286148
0.0277301
0.0280517
1.40258e-43
1.39756e-43
7.11043e-44
0.0279512
0.0284417
0.0544501
0.0546317
0.0551495
0.028356
1.39111e-43
0.0278221
0.0542785
0.0275981
0.0278691
1.39345e-43
1.39093e-43
7.06422e-44
0.0278187
0.0282569
0.0541993
0.0542936
0.054807
0.0282207
1.38212e-43
0.0276425
0.0539449
0.0275311
0.027775
1.38875e-43
1.38761e-43
7.04063e-44
0.0277522
0.0281625
0.0540704
0.0541119
0.0546254
0.028152
1.37744e-43
0.0275489
0.0537645
0.0275107
0.0277348
1.38674e-43
1.38664e-43
7.03058e-44
0.0277328
0.0281223
0.0540325
0.0540329
0.0545471
0.0281302
1.37543e-43
0.0275086
0.0536859
0.0275326
0.0277384
1.38692e-43
1.38781e-43
7.0315e-44
0.0277562
0.028126
0.0540785
0.0540394
0.0545546
0.0281506
1.37559e-43
0.0275119
0.0536922
0.0276021
0.0277872
1.38936e-43
1.39143e-43
7.04368e-44
0.0278285
0.0281747
0.0542192
0.0541334
0.0546501
0.0282182
1.37798e-43
0.0275596
0.0537852
0.0277396
0.0278945
1.39473e-43
1.39865e-43
7.07059e-44
0.0279731
0.0282823
0.0544944
0.0543385
0.0548587
0.0283552
1.38321e-43
0.0276642
0.0539867
0.0280106
0.0281046
1.40523e-43
1.41348e-43
7.12469e-44
0.0282696
0.0284988
0.0550154
0.0547234
0.0552572
0.028665
1.39316e-43
0.0278632
0.0543561
0.0286947
0.0285718
1.42859e-43
7.26021e-44
7.2623e-44
0.0290408
0.0290492
0.0560562
0.0554707
0.0561099
0.0298504
1.41417e-43
0.0282834
0.0550387
0.0277304
0.0280582
1.40291e-43
1.39155e-43
0.0278311
0.054283
0.0546384
1.39746e-43
7.11369e-44
0.0279492
0.054447
0.0284547
0.0551524
0.0283448
0.0274823
0.027679
1.38395e-43
1.37906e-43
0.0275812
0.0538437
0.0540184
1.37873e-43
0.0275745
0.0538333
0.027353
0.0275023
1.37512e-43
1.37259e-43
0.0274519
0.0535979
0.0536904
1.36998e-43
0.0273996
0.0535083
0.0272868
0.0274098
1.37049e-43
1.36932e-43
0.0273863
0.0534703
0.0535114
1.36538e-43
0.0273076
0.0533308
0.0272664
0.02737
1.3685e-43
1.36835e-43
0.0273671
0.0534322
0.0534329
1.36338e-43
0.0272676
0.0532527
0.0272874
0.0273734
1.36867e-43
1.36951e-43
0.0273902
0.0534766
0.0534385
1.36352e-43
0.0272704
0.0532579
0.0273544
0.0274209
1.37104e-43
1.37303e-43
0.0274607
0.0536128
0.0535297
1.36582e-43
0.0273164
0.0533475
0.027484
0.0275239
1.37619e-43
1.37989e-43
0.0275978
0.0538731
0.0537262
1.37081e-43
0.0274162
0.0535399
0.0277316
0.0277164
1.38582e-43
1.393e-43
0.02786
0.0543387
0.0540808
1.38008e-43
0.0276016
0.0538852
0.0283795
0.0281128
1.40564e-43
7.12524e-44
0.028501
0.055206
0.054723
1.39948e-43
0.0279896
0.054514
0.0275985
0.0278752
1.39376e-43
1.38252e-43
0.0276504
0.0539467
0.0543004
1.39091e-43
7.06726e-44
0.0278182
0.0541965
0.0282691
0.0548095
0.0282096
0.0273533
0.0275019
1.37509e-43
1.37027e-43
0.0274054
0.0535161
0.0536903
1.37233e-43
0.0274466
0.0535881
0.0272256
0.0273286
1.36643e-43
1.36391e-43
0.0272782
0.0532743
0.0533686
1.36369e-43
0.0272738
0.0532671
0.0271598
0.0272374
1.36187e-43
1.36066e-43
0.0272133
0.053148
0.053192
1.35913e-43
0.0271827
0.0530914
0.0271391
0.0271977
1.35989e-43
1.35969e-43
0.0271939
0.0531095
0.0531138
1.35714e-43
0.0271428
0.0530134
0.0271591
0.0272005
1.36002e-43
1.36079e-43
0.0272158
0.0531518
0.0531182
1.35724e-43
0.0271448
0.0530173
0.0272236
0.0272462
1.36231e-43
1.36418e-43
0.0272836
0.0532828
0.0532059
1.35946e-43
0.0271892
0.0531036
0.0273484
0.0273449
1.36724e-43
1.37072e-43
0.0274144
0.0535313
0.0533943
1.36428e-43
0.0272856
0.0532895
0.0275882
0.0275279
1.3764e-43
1.38317e-43
0.0276634
0.0539735
0.0537319
1.37324e-43
0.0274648
0.0536231
0.0282317
0.0279092
1.39546e-43
7.07261e-44
0.0282904
0.054813
0.0543472
1.39227e-43
0.0278454
0.0542377
0.0275321
0.0277801
1.38901e-43
1.37777e-43
0.0275555
0.0537639
0.054119
1.38765e-43
7.04324e-44
0.027753
0.0540691
0.028173
0.0546262
0.0281418
0.0272876
0.0274083
1.37042e-43
1.3656e-43
0.027312
0.0533362
0.0535114
1.36911e-43
0.0273823
0.053462
0.0271604
0.0272364
1.36182e-43
1.35929e-43
0.0271857
0.0530962
0.0531921
1.36051e-43
0.0272102
0.0531423
0.0270947
0.0271457
1.35728e-43
1.35605e-43
0.0271211
0.0529703
0.0530166
1.35596e-43
0.0271192
0.052967
0.0270735
0.027106
1.3553e-43
1.35506e-43
0.0271013
0.0529311
0.0529383
1.35395e-43
0.0270791
0.0528886
0.0270926
0.027108
1.3554e-43
1.35611e-43
0.0271222
0.0529714
0.0529413
1.35403e-43
0.0270805
0.0528911
0.0271555
0.0271522
1.35761e-43
1.3594e-43
0.027188
0.0530985
0.0530261
1.35618e-43
0.0271236
0.052975
0.0272778
0.0272482
1.36241e-43
1.36577e-43
0.0273154
0.0533406
0.0532094
1.3609e-43
0.027218
0.053157
0.0275148
0.0274272
1.37136e-43
1.37799e-43
0.0275598
0.0537742
0.0535394
1.36973e-43
0.0273946
0.0534856
0.0281579
0.0278044
1.39022e-43
7.04605e-44
0.0281842
0.0546067
0.0541467
1.38865e-43
0.027773
0.0540956
0.0275126
0.027739
1.38695e-43
1.3757e-43
0.0275141
0.0536833
0.0540401
1.38674e-43
7.03282e-44
0.0277349
0.0540328
0.0281313
0.0545463
0.0281216
0.027268
0.0273676
1.36838e-43
1.36354e-43
0.0272708
0.053256
0.0534329
1.36821e-43
0.0273643
0.0534255
0.0271405
0.0271958
1.35979e-43
1.35723e-43
0.0271446
0.0530162
0.0531138
1.3596e-43
0.0271919
0.0531054
0.0270743
0.027105
1.35525e-43
1.35399e-43
0.0270798
0.0528898
0.0529382
1.35503e-43
0.0271006
0.0529294
0.0270526
0.0270649
1.35325e-43
1.35298e-43
0.0270595
0.0528496
0.0528591
1.353e-43
0.02706
0.05285
0.0270709
0.0270663
1.35332e-43
1.35398e-43
0.0270796
0.0528883
0.0528609
1.35304e-43
0.0270607
0.0528512
0.0271329
0.0271095
1.35547e-43
1.35721e-43
0.0271442
0.0530131
0.0529437
1.35515e-43
0.0271031
0.0529335
0.0272541
0.0272041
1.3602e-43
1.36349e-43
0.0272699
0.0532519
0.0531242
1.35982e-43
0.0271964
0.0531135
0.0274902
0.0273814
1.36907e-43
1.37563e-43
0.0275126
0.0536821
0.0534509
1.3686e-43
0.027372
0.05344
0.0281336
0.0277572
1.38786e-43
7.03408e-44
0.0281363
0.0545121
0.0540553
1.38748e-43
0.0277497
0.0540484
0.0275359
0.0277417
1.38709e-43
1.37581e-43
0.0275163
0.0536876
0.0540464
1.388e-43
7.03339e-44
0.0277599
0.0540805
0.0281336
0.0545518
0.0281446
0.0272904
0.02737
1.3685e-43
1.36363e-43
0.0272725
0.0532592
0.0534382
1.36943e-43
0.0273887
0.0534716
0.0271617
0.0271975
1.35988e-43
1.35728e-43
0.0271457
0.053018
0.0531179
1.36076e-43
0.0272152
0.0531493
0.0270946
0.0271061
1.35531e-43
1.35401e-43
0.0270801
0.0528904
0.0529409
1.35614e-43
0.0271229
0.0529713
0.0270722
0.0270654
1.35327e-43
1.35296e-43
0.0270592
0.052849
0.0528606
1.35407e-43
0.0270814
0.0528903
0.0270899
0.0270662
1.35331e-43
1.35393e-43
0.0270787
0.0528863
0.0528611
1.35408e-43
0.0270816
0.0528904
0.0271514
0.0271087
1.35543e-43
1.35713e-43
0.0271425
0.0530098
0.0529426
1.35617e-43
0.0271234
0.0529717
0.0272722
0.0272026
1.36013e-43
1.36338e-43
0.0272676
0.0532473
0.0531219
1.36082e-43
0.0272164
0.0531509
0.0275083
0.0273792
1.36896e-43
1.37549e-43
0.0275098
0.0536763
0.0534473
1.36959e-43
0.0273917
0.0534769
0.0281526
0.0277547
1.38773e-43
7.03336e-44
0.0281334
0.0545051
0.0540507
1.38847e-43
0.0277695
0.054085
0.0276077
0.0277892
1.38946e-43
1.37814e-43
0.0275628
0.0537781
0.0541397
1.39172e-43
7.0452e-44
0.0278344
0.054223
0.0281808
0.0546446
0.0282171
0.0273594
0.0274161
1.37081e-43
1.36587e-43
0.0273174
0.0533463
0.0535287
1.37304e-43
0.0274609
0.0536096
0.0272283
0.027242
1.3621e-43
1.35944e-43
0.0271889
0.053102
0.053205
1.36424e-43
0.0272847
0.0532822
0.0271596
0.0271491
1.35746e-43
1.35611e-43
0.0271221
0.052972
0.0530252
1.35952e-43
0.0271905
0.0531005
0.0271362
0.0271074
1.35537e-43
1.35502e-43
0.0271004
0.0529289
0.0529429
1.35739e-43
0.0271478
0.0530171
0.0271535
0.0271075
1.35538e-43
1.35597e-43
0.0271193
0.0529653
0.0529421
1.35736e-43
0.0271472
0.0530159