# vtk DataFile Version 3.0
description of the mesh
ASCII
DATASET UNSTRUCTURED_GRID
POINTS 1331 float
0.1 0.1 0
0.1 0.1 0.1
0 0 0
0.1 0 0
0.1 0 0.1
0 0 0.1
0 0.1 0
0 0.1 0.1
0.2 0.1 0
0.2 0.1 0.1
0.2 0 0
0.2 0 0.1
0.3 0.1 0
0.3 0.1 0.1
0.3 0 0
0.3 0 0.1
0.4 0.1 0
0.4 0.1 0.1
0.4 0 0
0.4 0 0.1
0.5 0.1 0
0.5 0.1 0.1
0.5 0 0
0.5 0 0.1
0.6 0.1 0
0.6 0.1 0.1
0.6 0 0
0.6 0 0.1
0.7 0.1 0
0.7 0.1 0.1
0.7 0 0
0.7 0 0.1
0.8 0.1 0
0.8 0.1 0.1
0.8 0 0
0.8 0 0.1
0.9 0.1 0
0.9 0.1 0.1
0.9 0 0
0.9 0 0.1
1 0.1 0
1 0.1 0.1
1 0 0
1 0 0.1
0.1 0.2 0
0.1 0.2 0.1
0 0.2 0
0 0.2 0.1
0.2 0.2 0
0.2 0.2 0.1
0.3 0.2 0
0.3 0.2 0.1
0.4 0.2 0
0.4 0.2 0.1
0.5 0.2 0
0.5 0.2 0.1
0.6 0.2 0
0.6 0.2 0.1
0.7 0.2 0
0.7 0.2 0.1
0.8 0.2 0
0.8 0.2 0.1
0.9 0.2 0
0.9 0.2 0.1
1 0.2 0
1 0.2 0.1
0.1 0.3 0
0.1 0.3 0.1
0 0.3 0
0 0.3 0.1
0.2 0.3 0
0.2 0.3 0.1
0.3 0.3 0
0.3 0.3 0.1
0.4 0.3 0
0.4 0.3 0.1
0.5 0.3 0
0.5 0.3 0.1
0.6 0.3 0
0.6 0.3 0.1
0.7 0.3 0
0.7 0.3 0.1
0.8 0.3 0
0.8 0.3 0.1
0.9 0.3 0
0.9 0.3 0.1
1 0.3 0
1 0.3 0.1
0.1 0.4 0
0.1 0.4 0.1
0 0.4 0
0 0.4 0.1
0.2 0.4 0
0.2 0.4 0.1
0.3 0.4 0
0.3 0.4 0.1
0.4 0.4 0
0.4 0.4 0.1
0.5 0.4 0
0.5 0.4 0.1
0.6 0.4 0
0.6 0.4 0.1
0.7 0.4 0
0.7 0.4 0.1
0.8 0.4 0
0.8 0.4 0.1
0.9 0.4 0
0.9 0.4 0.1
1 0.4 0
1 0.4 0.1
0.1 0.5 0
0.1 0.5 0.1
0 0.5 0
0 0.5 0.1
0.2 0.5 0
0.2 0.5 0.1
0.3 0.5 0
0.3 0.5 0.1
0.4 0.5 0
0.4 0.5 0.1
0.5 0.5 0
0.5 0.5 0.1
0.6 0.5 0
0.6 0.5 0.1
0.7 0.5 0
0.7 0.5 0.1
0.8 0.5 0
0.8 0.5 0.1
0.9 0.5 0
0.9 0.5 0.1
1 0.5 0
1 0.5 0.1
0.1 0.6 0
0.1 0.6 0.1
0 0.6 0
0 0.6 0.1
0.2 0.6 0
0.2 0.6 0.1
0.3 0.6 0
0.3 0.6 0.1
0.4 0.6 0
0.4 0.6 0.1
0.5 0.6 0
0.5 0.6 0.1
0.6 0.6 0
0.6 0.6 0.1
0.7 0.6 0
0.7 0.6 0.1
0.8 0.6 0
0.8 0.6 0.1
0.9 0.6 0
0.9 0.6 0.1
1 0.6 0
1 0.6 0.1
0.1 0.7 0
0.1 0.7 0.1
0 0.7 0
0 0.7 0.1
0.2 0.7 0
0.2 0.7 0.1
0.3 0.7 0
0.3 0.7 0.1
0.4 0.7 0
0.4 0.7 0.1
0.5 0.7 0
0.5 0.7 0.1
0.6 0.7 0
0.6 0.7 0.1
0.7 0.7 0
0.7 0.7 0.1
0.8 0.7 0
0.8 0.7 0.1
0.9 0.7 0
0.9 0.7 0.1
1 0.7 0
1 0.7 0.1
0.1 0.8 0
0.1 0.8 0.1
0 0.8 0
0 0.8 0.1
0.2 0.8 0
0.2 0.8 0.1
0.3 0.8 0
0.3 0.8 0.1
0.4 0.8 0
0.4 0.8 0.1
0.5 0.8 0
0.5 0.8 0.1
0.6 0.8 0
0.6 0.8 0.1
0.7 0.8 0
0.7 0.8 0.1
0.8 0.8 0
0.8 0.8 0.1
0.9 0.8 0
0.9 0.8 0.1
1 0.8 0
1 0.8 0.1
0.1 0.9 0
0.1 0.9 0.1
0 0.9 0
0 0.9 0.1
0.2 0.9 0
0.2 0.9 0.1
0.3 0.9 0
0.3 0.9 0.1
0.4 0.9 0
0.4 0.9 0.1
0.5 0.9 0
0.5 0.9 0.1
0.6 0.9 0
0.6 0.9 0.1
0.7 0.9 0
0.7 0.9 0.1
0.8 0.9 0
0.8 0.9 0.1
0.9 0.9 0
0.9 0.9 0.1
1 0.9 0
1 0.9 0.1
0.1 1 0
0.1 1 0.1
0 1 0
0 1 0.1
0.2 1 0
0.2 1 0.1
0.3 1 0
0.3 1 0.1
0.4 1 0
0.4 1 0.1
0.5 1 0
0.5 1 0.1
0.6 1 0
0.6 1 0.1
0.7 1 0
0.7 1 0.1
0.8 1 0
0.8 1 0.1
0.9 1 0
0.9 1 0.1
1 1 0
1 1 0.1
0.1 0.1 0.2
0.1 0 0.2
0 0 0.2
0 0.1 0.2
0.2 0.1 0.2
0.2 0 0.2
0.3 0.1 0.2
0.3 0 0.2
0.4 0.1 0.2
0.4 0 0.2
0.5 0.1 0.2
0.5 0 0.2
0.6 0.1 0.2
0.6 0 0.2
0.7 0.1 0.2
0.7 0 0.2
0.8 0.1 0.2
0.8 0 0.2
0.9 0.1 0.2
0.9 0 0.2
1 0.1 0.2
1 0 0.2
0.1 0.2 0.2
0 0.2 0.2
0.2 0.2 0.2
0.3 0.2 0.2
0.4 0.2 0.2
0.5 0.2 0.2
0.6 0.2 0.2
0.7 0.2 0.2
0.8 0.2 0.2
0.9 0.2 0.2
1 0.2 0.2
0.1 0.3 0.2
0 0.3 0.2
0.2 0.3 0.2
0.3 0.3 0.2
0.4 0.3 0.2
0.5 0.3 0.2
0.6 0.3 0.2
0.7 0.3 0.2
0.8 0.3 0.2
0.9 0.3 0.2
1 0.3 0.2
0.1 0.4 0.2
0 0.4 0.2
0.2 0.4 0.2
0.3 0.4 0.2
0.4 0.4 0.2
0.5 0.4 0.2
0.6 0.4 0.2
0.7 0.4 0.2
0.8 0.4 0.2
0.9 0.4 0.2
1 0.4 0.2
0.1 0.5 0.2
0 0.5 0.2
0.2 0.5 0.2
0.3 0.5 0.2
0.4 0.5 0.2
0.5 0.5 0.2
0.6 0.5 0.2
0.7 0.5 0.2
0.8 0.5 0.2
0.9 0.5 0.2
1 0.5 0.2
0.1 0.6 0.2
0 0.6 0.2
0.2 0.6 0.2
0.3 0.6 0.2
0.4 0.6 0.2
0.5 0.6 0.2
0.6 0.6 0.2
0.7 0.6 0.2
0.8 0.6 0.2
0.9 0.6 0.2
1 0.6 0.2
0.1 0.7 0.2
0 0.7 0.2
0.2 0.7 0.2
0.3 0.7 0.2
0.4 0.7 0.2
0.5 0.7 0.2
0.6 0.7 0.2
0.7 0.7 0.2
0.8 0.7 0.2
0.9 0.7 0.2
1 0.7 0.2
0.1 0.8 0.2
0 0.8 0.2
0.2 0.8 0.2
0.3 0.8 0.2
0.4 0.8 0.2
0.5 0.8 0.2
0.6 0.8 0.2
0.7 0.8 0.2
0.8 0.8 0.2
0.9 0.8 0.2
1 0.8 0.2
0.1 0.9 0.2
0 0.9 0.2
0.2 0.9 0.2
0.3 0.9 0.2
0.4 0.9 0.2
0.5 0.9 0.2
0.6 0.9 0.2
0.7 0.9 0.2
0.8 0.9 0.2
0.9 0.9 0.2
1 0.9 0.2
0.1 1 0.2
0 1 0.2
0.2 1 0.2
0.3 1 0.2
0.4 1 0.2
0.5 1 0.2
0.6 1 0.2
0.7 1 0.2
0.8 1 0.2
0.9 1 0.2
1 1 0.2
0.1 0.1 0.3
0.1 0 0.3
0 0 0.3
0 0.1 0.3
0.2 0.1 0.3
0.2 0 0.3
0.3 0.1 0.3
0.3 0 0.3
0.4 0.1 0.3
0.4 0 0.3
0.5 0.1 0.3
0.5 0 0.3
0.6 0.1 0.3
0.6 0 0.3
0.7 0.1 0.3
0.7 0 0.3
0.8 0.1 0.3
0.8 0 0.3
0.9 0.1 0.3
0.9 0 0.3
1 0.1 0.3
1 0 0.3
0.1 0.2 0.3
0 0.2 0.3
0.2 0.2 0.3
0.3 0.2 0.3
0.4 0.2 0.3
0.5 0.2 0.3
0.6 0.2 0.3
0.7 0.2 0.3
0.8 0.2 0.3
0.9 0.2 0.3
1 0.2 0.3
0.1 0.3 0.3
0 0.3 0.3
0.2 0.3 0.3
0.3 0.3 0.3
0.4 0.3 0.3
0.5 0.3 0.3
0.6 0.3 0.3
0.7 0.3 0.3
0.8 0.3 0.3
0.9 0.3 0.3
1 0.3 0.3
0.1 0.4 0.3
0 0.4 0.3
0.2 0.4 0.3
0.3 0.4 0.3
0.4 0.4 0.3
0.5 0.4 0.3
0.6 0.4 0.3
0.7 0.4 0.3
0.8 0.4 0.3
0.9 0.4 0.3
1 0.4 0.3
0.1 0.5 0.3
0 0.5 0.3
0.2 0.5 0.3
0.3 0.5 0.3
0.4 0.5 0.3
0.5 0.5 0.3
0.6 0.5 0.3
0.7 0.5 0.3
0.8 0.5 0.3
0.9 0.5 0.3
1 0.5 0.3
0.1 0.6 0.3
0 0.6 0.3
0.2 0.6 0.3
0.3 0.6 0.3
0.4 0.6 0.3
0.5 0.6 0.3
0.6 0.6 0.3
0.7 0.6 0.3
0.8 0.6 0.3
0.9 0.6 0.3
1 0.6 0.3
0.1 0.7 0.3
0 0.7 0.3
0.2 0.7 0.3
0.3 0.7 0.3
0.4 0.7 0.3
0.5 0.7 0.3
0.6 0.7 0.3
0.7 0.7 0.3
0.8 0.7 0.3
0.9 0.7 0.3
1 0.7 0.3
0.1 0.8 0.3
0 0.8 0.3
0.2 0.8 0.3
0.3 0.8 0.3
0.4 0.8 0.3
0.5 0.8 0.3
0.6 0.8 0.3
0.7 0.8 0.3
0.8 0.8 0.3
0.9 0.8 0.3
1 0.8 0.3
0.1 0.9 0.3
0 0.9 0.3
0.2 0.9 0.3
0.3 0.9 0.3
0.4 0.9 0.3
0.5 0.9 0.3
0.6 0.9 0.3
0.7 0.9 0.3
0.8 0.9 0.3
0.9 0.9 0.3
1 0.9 0.3
0.1 1 0.3
0 1 0.3
0.2 1 0.3
0.3 1 0.3
0.4 1 0.3
0.5 1 0.3
0.6 1 0.3
0.7 1 0.3
0.8 1 0.3
0.9 1 0.3
1 1 0.3
0.1 0.1 0.4
0.1 0 0.4
0 0 0.4
0 0.1 0.4
0.2 0.1 0.4
0.2 0 0.4
0.3 0.1 0.4
0.3 0 0.4
0.4 0.1 0.4
0.4 0 0.4
0.5 0.1 0.4
0.5 0 0.4
0.6 0.1 0.4
0.6 0 0.4
0.7 0.1 0.4
0.7 0 0.4
0.8 0.1 0.4
0.8 0 0.4
0.9 0.1 0.4
0.9 0 0.4
1 0.1 0.4
1 0 0.4
0.1 0.2 0.4
0 0.2 0.4
0.2 0.2 0.4
0.3 0.2 0.4
0.4 0.2 0.4
0.5 0.2 0.4
0.6 0.2 0.4
0.7 0.2 0.4
0.8 0.2 0.4
0.9 0.2 0.4
1 0.2 0.4
0.1 0.3 0.4
0 0.3 0.4
0.2 0.3 0.4
0.3 0.3 0.4
0.4 0.3 0.4
0.5 0.3 0.4
0.6 0.3 0.4
0.7 0.3 0.4
0.8 0.3 0.4
0.9 0.3 0.4
1 0.3 0.4
0.1 0.4 0.4
0 0.4 0.4
0.2 0.4 0.4
0.3 0.4 0.4
0.4 0.4 0.4
0.5 0.4 0.4
0.6 0.4 0.4
0.7 0.4 0.4
0.8 0.4 0.4
0.9 0.4 0.4
1 0.4 0.4
0.1 0.5 0.4
0 0.5 0.4
0.2 0.5 0.4
0.3 0.5 0.4
0.4 0.5 0.4
0.5 0.5 0.4
0.6 0.5 0.4
0.7 0.5 0.4
0.8 0.5 0.4
0.9 0.5 0.4
1 0.5 0.4
0.1 0.6 0.4
0 0.6 0.4
0.2 0.6 0.4
0.3 0.6 0.4
0.4 0.6 0.4
0.5 0.6 0.4
0.6 0.6 0.4
0.7 0.6 0.4
0.8 0.6 0.4
0.9 0.6 0.4
1 0.6 0.4
0.1 0.7 0.4
0 0.7 0.4
0.2 0.7 0.4
0.3 0.7 0.4
0.4 0.7 0.4
0.5 0.7 0.4
0.6 0.7 0.4
0.7 0.7 0.4
0.8 0.7 0.4
0.9 0.7 0.4
1 0.7 0.4
0.1 0.8 0.4
0 0.8 0.4
0.2 0.8 0.4
0.3 0.8 0.4
0.4 0.8 0.4
0.5 0.8 0.4
0.6 0.8 0.4
0.7 0.8 0.4
0.8 0.8 0.4
0.9 0.8 0.4
1 0.8 0.4
0.1 0.9 0.4
0 0.9 0.4
0.2 0.9 0.4
0.3 0.9 0.4
0.4 0.9 0.4
0.5 0.9 0.4
0.6 0.9 0.4
0.7 0.9 0.4
0.8 0.9 0.4
0.9 0.9 0.4
1 0.9 0.4
0.1 1 0.4
0 1 0.4
0.2 1 0.4
0.3 1 0.4
0.4 1 0.4
0.5 1 0.4
0.6 1 0.4
0.7 1 0.4
0.8 1 0.4
0.9 1 0.4
1 1 0.4
0.1 0.1 0.5
0.1 0 0.5
0 0 0.5
0 0.1 0.5
0.2 0.1 0.5
0.2 0 0.5
0.3 0.1 0.5
0.3 0 0.5
0.4 0.1 0.5
0.4 0 0.5
0.5 0.1 0.5
0.5 0 0.5
0.6 0.1 0.5
0.6 0 0.5
0.7 0.1 0.5
0.7 0 0.5
0.8 0.1 0.5
0.8 0 0.5
0.9 0.1 0.5
0.9 0 0.5
1 0.1 0.5
1 0 0.5
0.1 0.2 0.5
0 0.2 0.5
0.2 0.2 0.5
0.3 0.2 0.5
0.4 0.2 0.5
0.5 0.2 0.5
0.6 0.2 0.5
0.7 0.2 0.5
0.8 0.2 0.5
0.9 0.2 0.5
1 0.2 0.5
0.1 0.3 0.5
0 0.3 0.5
0.2 0.3 0.5
0.3 0.3 0.5
0.4 0.3 0.5
0.5 0.3 0.5
0.6 0.3 0.5
0.7 0.3 0.5
0.8 0.3 0.5
0.9 0.3 0.5
1 0.3 0.5
0.1 0.4 0.5
0 0.4 0.5
0.2 0.4 0.5
0.3 0.4 0.5
0.4 0.4 0.5
0.5 0.4 0.5
0.6 0.4 0.5
0.7 0.4 0.5
0.8 0.4 0.5
0.9 0.4 0.5
1 0.4 0.5
0.1 0.5 0.5
0 0.5 0.5
0.2 0.5 0.5
0.3 0.5 0.5
0.4 0.5 0.5
0.5 0.5 0.5
0.6 0.5 0.5
0.7 0.5 0.5
0.8 0.5 0.5
0.9 0.5 0.5
1 0.5 0.5
0.1 0.6 0.5
0 0.6 0.5
0.2 0.6 0.5
0.3 0.6 0.5
0.4 0.6 0.5
0.5 0.6 0.5
0.6 0.6 0.5
0.7 0.6 0.5
0.8 0.6 0.5
0.9 0.6 0.5
1 0.6 0.5
0.1 0.7 0.5
0 0.7 0.5
0.2 0.7 0.5
0.3 0.7 0.5
0.4 0.7 0.5
0.5 0.7 0.5
0.6 0.7 0.5
0.7 0.7 0.5
0.8 0.7 0.5
0.9 0.7 0.5
1 0.7 0.5
0.1 0.8 0.5
0 0.8 0.5
0.2 0.8 0.5
0.3 0.8 0.5
0.4 0.8 0.5
0.5 0.8 0.5
0.6 0.8 0.5
0.7 0.8 0.5
0.8 0.8 0.5
0.9 0.8 0.5
1 0.8 0.5
0.1 0.9 0.5
0 0.9 0.5
0.2 0.9 0.5
0.3 0.9 0.5
0.4 0.9 0.5
0.5 0.9 0.5
0.6 0.9 0.5
0.7 0.9 0.5
0.8 0.9 0.5
0.9 0.9 0.5
1 0.9 0.5
0.1 1 0.5
0 1 0.5
0.2 1 0.5
0.3 1 0.5
0.4 1 0.5
0.5 1 0.5
0.6 1 0.5
0.7 1 0.5
0.8 1 0.5
0.9 1 0.5
1 1 0.5
0.1 0.1 0.6
0.1 0 0.6
0 0 0.6
0 0.1 0.6
0.2 0.1 0.6
0.2 0 0.6
0.3 0.1 0.6
0.3 0 0.6
0.4 0.1 0.6
0.4 0 0.6
0.5 0.1 0.6
0.5 0 0.6
0.6 0.1 0.6
0.6 0 0.6
0.7 0.1 0.6
0.7 0 0.6
0.8 0.1 0.6
0.8 0 0.6
0.9 0.1 0.6
0.9 0 0.6
1 0.1 0.6
1 0 0.6
0.1 0.2 0.6
0 0.2 0.6
0.2 0.2 0.6
0.3 0.2 0.6
0.4 0.2 0.6
0.5 0.2 0.6
0.6 0.2 0.6
0.7 0.2 0.6
0.8 0.2 0.6
0.9 0.2 0.6
1 0.2 0.6
0.1 0.3 0.6
0 0.3 0.6
0.2 0.3 0.6
0.3 0.3 0.6
0.4 0.3 0.6
0.5 0.3 0.6
0.6 0.3 0.6
0.7 0.3 0.6
0.8 0.3 0.6
0.9 0.3 0.6
1 0.3 0.6
0.1 0.4 0.6
0 0.4 0.6
0.2 0.4 0.6
0.3 0.4 0.6
0.4 0.4 0.6
0.5 0.4 0.6
0.6 0.4 0.6
0.7 0.4 0.6
0.8 0.4 0.6
0.9 0.4 0.6
1 0.4 0.6
0.1 0.5 0.6
0 0.5 0.6
0.2 0.5 0.6
0.3 0.5 0.6
0.4 0.5 0.6
0.5 0.5 0.6
0.6 0.5 0.6
0.7 0.5 0.6
0.8 0.5 0.6
0.9 0.5 0.6
1 0.5 0.6
0.1 0.6 0.6
0 0.6 0.6
0.2 0.6 0.6
0.3 0.6 0.6
0.4 0.6 0.6
0.5 0.6 0.6
0.6 0.6 0.6
0.7 0.6 0.6
0.8 0.6 0.6
0.9 0.6 0.6
1 0.6 0.6
0.1 0.7 0.6
0 0.7 0.6
0.2 0.7 0.6
0.3 0.7 0.6
0.4 0.7 0.6
0.5 0.7 0.6
0.6 0.7 0.6
0.7 0.7 0.6
0.8 0.7 0.6
0.9 0.7 0.6
1 0.7 0.6
0.1 0.8 0.6
0 0.8 0.6
0.2 0.8 0.6
0.3 0.8 0.6
0.4 0.8 0.6
0.5 0.8 0.6
0.6 0.8 0.6
0.7 0.8 0.6
0.8 0.8 0.6
0.9 0.8 0.6
1 0.8 0.6
0.1 0.9 0.6
0 0.9 0.6
0.2 0.9 0.6
0.3 0.9 0.6
0.4 0.9 0.6
0.5 0.9 0.6
0.6 0.9 0.6
0.7 0.9 0.6
0.8 0.9 0.6
0.9 0.9 0.6
1 0.9 0.6
0.1 1 0.6
0 1 0.6
0.2 1 0.6
0.3 1 0.6
0.4 1 0.6
0.5 1 0.6
0.6 1 0.6
0.7 1 0.6
0.8 1 0.6
0.9 1 0.6
1 1 0.6
0.1 0.1 0.7
0.1 0 0.7
0 0 0.7
0 0.1 0.7
0.2 0.1 0.7
0.2 0 0.7
0.3 0.1 0.7
0.3 0 0.7
0.4 0.1 0.7
0.4 0 0.7
0.5 0.1 0.7
0.5 0 0.7
0.6 0.1 0.7
0.6 0 0.7
0.7 0.1 0.7
0.7 0 0.7
0.8 0.1 0.7
0.8 0 0.7
0.9 0.1 0.7
0.9 0 0.7
1 0.1 0.7
1 0 0.7
0.1 0.2 0.7
0 0.2 0.7
0.2 0.2 0.7
0.3 0.2 0.7
0.4 0.2 0.7
0.5 0.2 0.7
0.6 0.2 0.7
0.7 0.2 0.7
0.8 0.2 0.7
0.9 0.2 0.7
1 0.2 0.7
0.1 0.3 0.7
0 0.3 0.7
0.2 0.3 0.7
0.3 0.3 0.7
0.4 0.3 0.7
0.5 0.3 0.7
0.6 0.3 0.7
0.7 0.3 0.7
0.8 0.3 0.7
0.9 0.3 0.7
1 0.3 0.7
0.1 0.4 0.7
0 0.4 0.7
0.2 0.4 0.7
0.3 0.4 0.7
0.4 0.4 0.7
0.5 0.4 0.7
0.6 0.4 0.7
0.7 0.4 0.7
[...]
POINT_DATA 1331
SCALARS sol float
LOOKUP_TABLE default
-0.93306
-0.269968
0.381271
-0.155027
-0.159169
0.0468352
0.273117
-0.0139692
-0.396689
-0.161338
-0.270015
-0.234935
-0.364279
-0.223501
-0.786509
-0.328756
-0.836655
-0.171784
0.129304
-0.0887574
0.96352
0.238709
-0.0912082
0.0895206
0.147683
0.176969
0.457093
0.217899
0.592256
0.317805
-0.450467
0.0820134
0.82736
0.355154
-0.49583
0.111006
-0.568939
0.120876
0.967135
0.325915
0.827134
0.285746
-0.434866
0.167196
-0.0314227
0.00765546
0.984198
0.18712
0.880537
0.164444
-0.381537
-0.100269
0.551201
0.071976
-0.118634
0.0563367
-0.362283
0.0392529
0.956633
0.396112
0.50589
0.360301
0.889169
0.318098
-0.56303
0.0967652
0.57314
0.0651539
-0.829375
-0.132943
0.902404
0.152858
-0.762604
-0.187662
-0.539385
-0.105105
0.246163
0.0652437
-0.662105
-0.0829491
0.558315
0.268602
-0.0292421
0.198484
-0.516387
0.0627891
0.808401
0.227874
-0.809418
-0.265667
0.351302
-0.0701528
-0.7288
-0.198997
0.0297216
-0.0579658
0.63381
0.117953
0.576201
0.162956
-0.856863
-0.0894745
0.802195
0.300208
0.946142
0.384616
0.586506
0.210294
-0.292377
0.0313796
-0.680994
-0.286104
-0.119241
-0.169923
0.375454
-0.0511112
0.141887
-0.0485742
-0.514299
-0.111709
-0.0511112
0.047663
0.0289407
0.0838926
0.0774748
0.168198
0.928258
0.252604
-0.338476
-0.0478231
-0.484279
-0.133503
-0.0169369
-0.152646
0.185194
-0.0424764
-0.419274
-0.192867
-0.878489
-0.225475
-0.303899
-0.073502
0.554287
0.226049
0.73028
0.299537
-0.0587686
0.0678047
-0.886404
-0.148553
-0.795364
-0.265099
0.263935
-0.088557
-0.717427
-0.257854
0.292239
-0.0605329
0.0526954
-0.0505958
0.715289
0.129812
-0.241576
0.0126218
0.886332
0.325553
0.627558
0.344109
-0.284682
0.0942607
0.755408
0.12682
-0.810415
-0.261368
-0.0117208
-0.164317
-0.760564
-0.203635
-0.207968
-0.110688
0.356443
0.0221266
0.415516
0.120077
-0.769755
-0.0819687
-0.0382118
0.146949
0.908919
0.397739
0.476247
0.270369
0.5829
0.169872
-0.677439
-0.219737
-0.821711
-0.29455
0.936291
0.130653
0.699188
0.156621
-0.694973
-0.130929
0.00139421
0.039089
0.808638
0.187484
0.222816
0.131794
0.593861
0.283795
0.597338
0.248958
0.199637
0.135033
-0.292535
-0.0893562
0.350067
-0.0320357
-0.824091
-0.160974
-0.759407
-0.128824
0.0609846
-0.0536455
0.228041
0.0589537
-0.486727
-0.0636731
-0.867119
-0.136472
-0.143968
0.0386109
-0.898766
-0.0493417
0.731214
0.20546
0.0982557
0.00508297
-0.489459
-0.154385
-0.150548
-0.113072
-0.0175189
-0.065983
-0.0885395
-0.159023
-0.125753
-0.186975
-0.0472807
-0.0696972
0.103038
0.0460165
0.156167
0.143074
0.230516
0.168503
0.267223
0.198081
0.190735
0.253574
0.231862
0.195256
-0.0372915
0.0284859
0.0268693
-0.0431479
0.02228
0.0767008
0.131961
0.257144
0.294193
0.227755
0.155856
-0.0407456
-0.0552202
0.00479498
-0.0921045
-0.0423881
0.00726327
0.0570593
0.185124
0.220617
0.139
0.155917
-0.159016
-0.0872247
-0.0997631
-0.0586414
0.0333545
0.0843846
0.0434903
0.17955
0.226289
0.136207
0.0599314
-0.209116
-0.142627
-0.126109
-0.101303
-0.0208271
0.0478145
0.102162
0.155665
0.121577
0.0138983
-0.0316164
-0.157784
-0.0885555
-0.139259
-0.0902992
0.00998064
0.137407
0.190412
0.0918761
-0.0243156
-0.111527
-0.101569
-0.161705
-0.148147
-0.0649139
0.0257221
0.0593758
0.190135
0.236434
0.130288
0.0207222
-0.114897
-0.16361
-0.0979118
-0.0665515
-0.0246083
0.0561595
0.0226722
0.143886
0.246168
0.177121
0.063265
-0.0882832
-0.158696
0.0120637
0.04135
-0.0545604
0.0272462
0.101295
0.10072
0.190272
0.160055
0.0771627
-0.0336738
-0.0890717
-0.0724414
-0.0520103
-0.0385195
0.0640707
0.000407562
-0.00441021
0.0789328
0.055557
0.102092
0.00169604
-0.0741929
-0.120288
-0.150562
-0.0838991
-0.138167
-0.039557
-0.0654817
-0.0688815
-0.10019
0.00684039
-0.0265796
0.0937299
0.0522356
0.177815
0.11568
0.131175
0.196169
0.188427
0.256396
0.228077
0.185869
0.163924
0.123535
-0.0527493
-0.050965
-0.00857698
0.0226715
0.0735322
0.145119
0.101403
0.180312
0.224753
0.175076
0.10202
-0.128688
-0.0585679
-0.0816201
-0.0390211
0.0191401
0.0807377
0.0454871
0.133824
0.179685
0.131862
0.0620431
-0.0978649
-0.0257694
-0.0384992
0.020238
-0.0176322
0.0470734
0.128504
0.106319
0.136414
0.0614465
0.0964891
-0.144475
-0.0817433
-0.0836603
-0.022428
0.0327199
0.109248
0.169899
0.133156
0.0578442
0.00847757
0.0258128
-0.0971164
-0.0304146
-0.0577667
0.00516352
0.0710977
0.157616
0.124991
0.0597722
-0.00923566
-0.0745029
-0.0488392
-0.0787914
-0.0939612
0.00187335
-0.0237644
0.0379924
0.127022
0.183249
0.110659
0.0317382
-0.0496622
-0.119297
-0.0157396
-0.00504229
0.0374829
0.00806388
0.103
0.17735
0.139528
0.14969
0.0736579
-0.0142307
-0.076135
0.0471227
0.0741896
-0.0104281
0.0756015
0.139794
0.130122
0.165584
0.0942678
0.0123402
0.0180737
-0.0413641
-0.0243572
0.0211572
0.0367802
0.122527
0.0549179
0.0462459
0.0837598
0.029537
0.0402218
-0.0376979
0.0239223
-0.0484551
-0.0643597
-0.145593
-0.117508
-0.100861
-0.0755956
0.000127414
0.00598936
-0.0249473
0.0248219
0.0507405
0.10093
0.118869
0.0551477
0.176724
0.129664
0.23181
0.188852
0.166208
0.120717
0.10093
0.16746
-0.120289
-0.0524388
-0.0786939
-0.0227303
0.0437338
0.106598
0.0526338
0.11377
0.166834
0.104393
0.15178
-0.0618816
0.00827406
-0.0264884
-0.0811442
-0.0184142
0.0464793
0.113339
0.16957
0.105261
0.0529251
0.0983947
-0.0289549
0.0391479
-0.0851545
-0.0213266
0.0517156
0.108103
0.168428
0.130023
0.0506966
0.0976591
0.0314313
-0.0779406
-0.0199258
-0.0207321
0.0438997
0.0944125
0.161437
0.11103
0.0483571
0.0898397
0.0348992
0.096575
-0.0251095
0.0364753
0.0090896
0.0814825
0.0333843
0.108386
0.0474128
0.0917462
0.0277857
-0.0396152
0.0164942
0.00262517
-0.0282363
-0.0493605
0.0308521
0.103441
0.168801
0.107339
0.149339
0.0833049
0.0155693
-0.0557365
0.0514266
-0.00451529
-0.00284914
0.0916117
0.0722522
0.133181
0.0537975
0.0899516
0.0131249
0.053367
-0.013082
0.119937
0.0558437
0.0648656
0.0790308
0.134639
0.0558201
0.0859269
0.0182227
0.0574995
0.101986
0.0357659
0.0533803
0.113796
0.0787759
0.141623
0.0581807
0.117561
0.123247
0.0612959
0.111305
0.0394553
-0.00713505
-0.113355
-0.0576668
-0.0690762
-0.0502574
-0.0272532
0.0180103
-0.0244458
-0.0481464
0.0527298
-0.020938
0.101741
0.0496628
0.167374
0.11326
0.227928
0.172231
0.164068
0.230135
0.217063
0.164048
0.151807
0.0983055
-0.0776111
-0.119006
-0.0151088
0.0465853
-0.00912485
0.047182
0.108609
0.166158
0.217902
0.156567
0.0945466
-0.0179137
-0.0605747
0.0443706
-0.0122315
0.0408133
0.104675
0.0513683
0.106671
0.155543
0.0968187
0.0328284
-0.0789783
-0.0175333
-0.0143969
0.0391956
0.0947196
0.160785
0.108753
0.0477118
0.092722
0.02968
0.0899245
-0.0177681
0.0389364
0.0423798
0.0897735
0.156315
0.102738
0.163897
0.0966862
0.0328848
0.091038
0.117373
0.0369706
-0.0205791
0.0885739
0.0260347
0.0972115
0.162557
0.104527
0.1499
0.0834686
0.0170669
0.0077925
0.0806104
0.0159305
0.0244893
0.0415145
0.144654
0.114823
0.159169
0.0892997
0.0229531
-0.0405908
-0.0979962
0.122702
0.0779722
0.0663204
0.0729582
0.13473
0.189904
0.103762
0.0213108
0.0608313
-0.00486701
-0.0680283
0.176814
0.124763
0.111399
0.143639
0.0660575
0.122529
0.123136
0.0566516
0.114752
0.0460153
-0.0138977
0.111305
0.0625638
0.15391
0.0706565
0.0319091
0.0891581
0.0424957
-0.00416491
0.0478833
0.101026
0.0461782
-0.0446142
0.0174892
-0.0545948
-0.117491
-0.0197349
-0.0493481
0.0507319
-0.0173224
0.104503
0.0450561
0.161951
0.104401
0.107027
0.165514
0.165869
0.109777
0.107318
0.16701
0.157838
0.105575
0.0980658
0.156653
-0.0134495
-0.0603962
0.0485688
-0.0109668
0.0450923
0.104837
0.163902
0.107485
0.159826
0.0967572
0.0382653
0.0466248
0.00639123
-0.0119031
0.0432272
0.101854
0.161226
0.106356
0.161273
0.096181
0.147351
0.0868419
-0.015241
0.0457968
0.0421367
0.0965069
0.15947
0.103296
0.0450983
0.0998686
0.14831
0.0870544
0.0265795
0.041521
0.102181
0.0946703
0.0339191
0.0973512
0.0466153
0.100394
0.150028
0.0866482
0.0233179
0.0717505
0.101976
0.0447958
0.156135
0.0965134
0.0507488
0.109337
0.153733
0.0906864
0.0221468
0.0704465
0.0228211
0.150531
0.0883289
0.0972782
0.0725846
0.12244
0.0449261
0.0844228
0.0238293
0.0697951
0.0105675
-0.0547917
0.190726
0.138312
0.141633
0.140388
0.0621288
0.123378
0.120763
0.0546507
0.121688
0.0600258
-0.00257644
0.119322
0.0668016
0.157828
0.0764394
0.0341704
0.0940318
0.0481659
0.11292
0.0527247
-0.00610292
0.0459667
0.0541675
0.119391
0.0958651
0.0324193
0.0904216
0.163982
0.109949
0.0557256
-0.00693013
0.0456406
0.104754
-0.00857802
0.0544669
-0.000870805
-0.0631403
0.0512421
-0.00943253
0.106138
0.0472658
0.0483029
0.104064
0.105497
0.0476478
0.16306
0.106344
0.105169
0.0483588
0.159689
0.105713
0.0992772
0.158388
0.037899
0.0896717
0.0500259
-0.000257506
-0.0113254
0.0467203
0.104418
0.0466102
0.104349
0.160102
0.0974716
0.0389312
-0.0216635
-0.0131809
0.0496276
0.0428556
0.099317
0.0438699
0.104298
0.0443212
0.0977223
0.039507
0.09043
0.028527
0.0476957
0.110357
0.0982363
0.158038
0.103272
0.0493847
-0.0156405
0.0394217
0.088377
0.0227465
-0.0301886
0.0959125
0.0449878
0.0359554
0.0960152
0.0458703
0.100443
0.033073
0.0885325
0.0224402
0.0725277
0.0184785
0.152161
0.0958343
0.0986585
0.0425039
0.106517
0.036305
0.0834838
0.0253844
0.0681246
0.0140295
-0.0500092
0.0819658
0.150216
0.0249167
-0.00345523
0.0507797
0.0448128
0.122158
0.0663764
0.0069931
0.0699968
0.00275064
0.122084
0.0760787
0.0651019
0.0670901
0.125241
0.105182
0.0479469
-0.00505427
0.0618972
-0.00187114
0.0532075
0.0600761
0.12072
0.0865064
0.136554
0.0968267
0.167754
0.110836
0.054654
0.103943
0.0423576
0.101863
0.103376
0.0565181
0.0333748
0.0877448
0.160572
0.118618
0.0535522
0.105776
0.0434282
0.100958
0.0390636
0.0476021
-0.00629868
0.0563053
-0.00388345
0.106204
0.046594
0.0471527
0.105786
0.104837
0.046847
0.0470099
0.105526
0.103438
0.046966
0.0444528
-0.0128982
0.100207
0.0451233
0.0386811
0.100376
0.0900473
0.0386929
-0.0127756
0.0486284
0.0453975
0.0987249
0.165318
0.10479
0.0459062
0.101425
0.040147
0.0900821
0.0292896
0.047264
0.110211
0.0975406
0.0365044
0.102158
0.0570167
-0.0116885
0.0413477
0.0905942
0.0245817
-0.0278002
0.0989374
0.0477
0.0369975
0.0954762
0.0365318
-0.00980155
0.0413707
-0.0242335
0.0235461
0.0759866
0.025618
0.153475
0.0971764
0.0914551
0.146537
0.0897355
0.0317627
0.0877552
0.0248856
-0.0369277
0.0211291
-0.0412408
0.083368
0.151452
0.0337041
0.0922374
0.162925
0.100005
0.132783
0.0748564
0.0129927
0.0835644
0.0198612
0.128939
0.0815103
0.0796827
0.0390475
0.11997
0.116128
0.0544444
0.000816705
0.0770305
0.00962108
0.0201614
0.0716915
0.119256
0.149525
0.129298
0.0962939
0.0414345
0.0971075
0.0390945
0.0998343
0.0348944
0.099854
0.141125
0.0679141
0.156401
0.208808
0.165506
0.106647
0.161297
0.103375
0.0399118
0.0981053
0.0346411
0.16376
0.141058
0.102142
0.155587
0.105478
0.0502284
0.104493
0.0410201
-0.018155
0.0373486
0.0912799
-0.0128495
0.045898
-0.00563622
0.0475476
0.0467069
-0.013083
0.099366
0.0442151
0.0471902
0.103145
-0.0104332
0.0470716
0.04493
-0.0108106
0.104804
0.0396645
0.153186
0.107624
0.090063
0.152061
0.0284268
0.0889179
0.0491001
0.110778
0.0972337
0.03687
0.107965
0.0496613
0.110187
0.153704
0.0919319
0.0274918
0.0869498
0.091149
0.155062
0.159527
0.0997363
0.0864879
0.00259062
0.0572472
0.0924573
0.0276646
0.0830827
0.0310617
0.15566
0.0903299
0.0941101
0.028867
0.0226907
0.0777359
0.0867575
0.0223708
0.0833277
0.0291653
0.0947502
0.087399
0.154383
0.141905
0.0717417
0.123126
0.080105
0.0127252
-0.0389555
0.0247375
0.094725
0.0315741
0.133727
0.086245
0.0840962
0.0283399
0.0874272
0.128455
0.0594971
0.00842452
-0.00725181
0.0679787
0.00920483
0.0759364
0.131803
0.0206408
0.104219
0.103933
0.039842
-0.00869012
0.0141275
0.0814655
0.0181615
0.0925989
0.14583
0.0721482
0.0886574
0.0880309
0.15995
0.0979373
0.0407296
0.0948648
0.0341467
-0.0315574
0.036931
0.0789632
0.141582
0.0921518
0.156693
0.104892
0.158639
0.102251
0.153642
0.0921502
0.0336987
-0.0135548
0.0974825
0.0772365
0.0259404
0.0877861
0.0448088
0.100979
0.15911
0.0939013
0.0343991
0.0914486
0.040533
0.0470071
-0.0122113
0.0480105
0.107692
-0.0130235
0.0448546
0.0411319
-0.0155066
-0.0130962
0.0424906
0.0477269
-0.0105169
-0.0123473
0.0460702
0.0461837
0.104975
0.0941207
0.048177
0.0268526
0.0931426
-0.021427
0.0384766
0.096331
0.158465
0.0320631
0.102137
0.04741
-0.00234243
0.0530715
0.0954
0.0299376
-0.0218332
0.03762
0.157345
0.220644
0.0927748
0.104474
0.017929
0.0615033
-0.0128974
0.0236916
-0.0218578
0.035137
-0.0269071
0.190619
0.15351
0.119354
0.0400041
0.101311
0.0896434
0.0149009
0.0814617
0.0331281
0.0991689
0.0392027
0.129442
0.0861057
0.196595
0.122085
0.0517533
0.0094599
0.0672059
0.0214873
-0.0151019
0.0550805
0.00164867
0.0797548
0.134711
0.151092
0.0871125
0.00834343
0.051617
0.00835484
0.0895407
0.0663039
0.00655571
0.0807756
0.148595
0.206326
0.0936696
0.0973495
0.0257428
-0.0111873
0.0139261
0.0882793
0.0294676
-0.0265621
0.0483528
0.156813
0.144383
0.0857183
0.156415
0.084875
0.0446513
0.102086
0.149087
0.0909408
0.0314283
0.0912007
0.0904015
0.0740708
0.160376
0.0872091
0.0482557
0.102077
0.0416668
0.0915666
0.147626
0.0886017
0.040891
0.0215059
0.0942028
0.0914551
0.051146
0.109608
0.159543
0.0983859
0.149738
0.0911505
0.0310993
-0.0272056
