# vtk DataFile Version 3.0
description of the mesh
ASCII
DATASET UNSTRUCTURED_GRID
POINTS 1331 float
0.1 0.1 0
0.1 0.1 0.1
0 0 0
0.1 0 0
0.1 0 0.1
0 0 0.1
0 0.1 0
0 0.1 0.1
0.2 0.1 0
0.2 0.1 0.1
0.2 0 0
0.2 0 0.1
0.3 0.1 0
0.3 0.1 0.1
0.3 0 0
0.3 0 0.1
0.4 0.1 0
0.4 0.1 0.1
0.4 0 0
0.4 0 0.1
0.5 0.1 0
0.5 0.1 0.1
0.5 0 0
0.5 0 0.1
0.6 0.1 0
0.6 0.1 0.1
0.6 0 0
0.6 0 0.1
0.7 0.1 0
0.7 0.1 0.1
0.7 0 0
0.7 0 0.1
0.8 0.1 0
0.8 0.1 0.1
0.8 0 0
0.8 0 0.1
0.9 0.1 0
0.9 0.1 0.1
0.9 0 0
0.9 0 0.1
1 0.1 0
1 0.1 0.1
1 0 0
1 0 0.1
0.1 0.2 0
0.1 0.2 0.1
0 0.2 0
0 0.2 0.1
0.2 0.2 0
0.2 0.2 0.1
0.3 0.2 0
0.3 0.2 0.1
0.4 0.2 0
0.4 0.2 0.1
0.5 0.2 0
0.5 0.2 0.1
0.6 0.2 0
0.6 0.2 0.1
0.7 0.2 0
0.7 0.2 0.1
0.8 0.2 0
0.8 0.2 0.1
0.9 0.2 0
0.9 0.2 0.1
1 0.2 0
1 0.2 0.1
0.1 0.3 0
0.1 0.3 0.1
0 0.3 0
0 0.3 0.1
0.2 0.3 0
0.2 0.3 0.1
0.3 0.3 0
0.3 0.3 0.1
0.4 0.3 0
0.4 0.3 0.1
0.5 0.3 0
0.5 0.3 0.1
0.6 0.3 0
0.6 0.3 0.1
0.7 0.3 0
0.7 0.3 0.1
0.8 0.3 0
0.8 0.3 0.1
0.9 0.3 0
0.9 0.3 0.1
1 0.3 0
1 0.3 0.1
0.1 0.4 0
0.1 0.4 0.1
0 0.4 0
0 0.4 0.1
0.2 0.4 0
0.2 0.4 0.1
0.3 0.4 0
0.3 0.4 0.1
0.4 0.4 0
0.4 0.4 0.1
0.5 0.4 0
0.5 0.4 0.1
0.6 0.4 0
0.6 0.4 0.1
0.7 0.4 0
0.7 0.4 0.1
0.8 0.4 0
0.8 0.4 0.1
0.9 0.4 0
0.9 0.4 0.1
1 0.4 0
1 0.4 0.1
0.1 0.5 0
0.1 0.5 0.1
0 0.5 0
0 0.5 0.1
0.2 0.5 0
0.2 0.5 0.1
0.3 0.5 0
0.3 0.5 0.1
0.4 0.5 0
0.4 0.5 0.1
0.5 0.5 0
0.5 0.5 0.1
0.6 0.5 0
0.6 0.5 0.1
0.7 0.5 0
0.7 0.5 0.1
0.8 0.5 0
0.8 0.5 0.1
0.9 0.5 0
0.9 0.5 0.1
1 0.5 0
1 0.5 0.1
0.1 0.6 0
0.1 0.6 0.1
0 0.6 0
0 0.6 0.1
0.2 0.6 0
0.2 0.6 0.1
0.3 0.6 0
0.3 0.6 0.1
0.4 0.6 0
0.4 0.6 0.1
0.5 0.6 0
0.5 0.6 0.1
0.6 0.6 0
0.6 0.6 0.1
0.7 0.6 0
0.7 0.6 0.1
0.8 0.6 0
0.8 0.6 0.1
0.9 0.6 0
0.9 0.6 0.1
1 0.6 0
1 0.6 0.1
0.1 0.7 0
0.1 0.7 0.1
0 0.7 0
0 0.7 0.1
0.2 0.7 0
0.2 0.7 0.1
0.3 0.7 0
0.3 0.7 0.1
0.4 0.7 0
0.4 0.7 0.1
0.5 0.7 0
0.5 0.7 0.1
0.6 0.7 0
0.6 0.7 0.1
0.7 0.7 0
0.7 0.7 0.1
0.8 0.7 0
0.8 0.7 0.1
0.9 0.7 0
0.9 0.7 0.1
1 0.7 0
1 0.7 0.1
0.1 0.8 0
0.1 0.8 0.1
0 0.8 0
0 0.8 0.1
0.2 0.8 0
0.2 0.8 0.1
0.3 0.8 0
0.3 0.8 0.1
0.4 0.8 0
0.4 0.8 0.1
0.5 0.8 0
0.5 0.8 0.1
0.6 0.8 0
0.6 0.8 0.1
0.7 0.8 0
0.7 0.8 0.1
0.8 0.8 0
0.8 0.8 0.1
0.9 0.8 0
0.9 0.8 0.1
1 0.8 0
1 0.8 0.1
0.1 0.9 0
0.1 0.9 0.1
0 0.9 0
0 0.9 0.1
0.2 0.9 0
0.2 0.9 0.1
0.3 0.9 0
0.3 0.9 0.1
0.4 0.9 0
0.4 0.9 0.1
0.5 0.9 0
0.5 0.9 0.1
0.6 0.9 0
0.6 0.9 0.1
0.7 0.9 0
0.7 0.9 0.1
0.8 0.9 0
0.8 0.9 0.1
0.9 0.9 0
0.9 0.9 0.1
1 0.9 0
1 0.9 0.1
0.1 1 0
0.1 1 0.1
0 1 0
0 1 0.1
0.2 1 0
0.2 1 0.1
0.3 1 0
0.3 1 0.1
0.4 1 0
0.4 1 0.1
0.5 1 0
0.5 1 0.1
0.6 1 0
0.6 1 0.1
0.7 1 0
0.7 1 0.1
0.8 1 0
0.8 1 0.1
0.9 1 0
0.9 1 0.1
1 1 0
1 1 0.1
0.1 0.1 0.2
0.1 0 0.2
0 0 0.2
0 0.1 0.2
0.2 0.1 0.2
0.2 0 0.2
0.3 0.1 0.2
0.3 0 0.2
0.4 0.1 0.2
0.4 0 0.2
0.5 0.1 0.2
0.5 0 0.2
0.6 0.1 0.2
0.6 0 0.2
0.7 0.1 0.2
0.7 0 0.2
0.8 0.1 0.2
0.8 0 0.2
0.9 0.1 0.2
0.9 0 0.2
1 0.1 0.2
1 0 0.2
0.1 0.2 0.2
0 0.2 0.2
0.2 0.2 0.2
0.3 0.2 0.2
0.4 0.2 0.2
0.5 0.2 0.2
0.6 0.2 0.2
0.7 0.2 0.2
0.8 0.2 0.2
0.9 0.2 0.2
1 0.2 0.2
0.1 0.3 0.2
0 0.3 0.2
0.2 0.3 0.2
0.3 0.3 0.2
0.4 0.3 0.2
0.5 0.3 0.2
0.6 0.3 0.2
0.7 0.3 0.2
0.8 0.3 0.2
0.9 0.3 0.2
1 0.3 0.2
0.1 0.4 0.2
0 0.4 0.2
0.2 0.4 0.2
0.3 0.4 0.2
0.4 0.4 0.2
0.5 0.4 0.2
0.6 0.4 0.2
0.7 0.4 0.2
0.8 0.4 0.2
0.9 0.4 0.2
1 0.4 0.2
0.1 0.5 0.2
0 0.5 0.2
0.2 0.5 0.2
0.3 0.5 0.2
0.4 0.5 0.2
0.5 0.5 0.2
0.6 0.5 0.2
0.7 0.5 0.2
0.8 0.5 0.2
0.9 0.5 0.2
1 0.5 0.2
0.1 0.6 0.2
0 0.6 0.2
0.2 0.6 0.2
0.3 0.6 0.2
0.4 0.6 0.2
0.5 0.6 0.2
0.6 0.6 0.2
0.7 0.6 0.2
0.8 0.6 0.2
0.9 0.6 0.2
1 0.6 0.2
0.1 0.7 0.2
0 0.7 0.2
0.2 0.7 0.2
0.3 0.7 0.2
0.4 0.7 0.2
0.5 0.7 0.2
0.6 0.7 0.2
0.7 0.7 0.2
0.8 0.7 0.2
0.9 0.7 0.2
1 0.7 0.2
0.1 0.8 0.2
0 0.8 0.2
0.2 0.8 0.2
0.3 0.8 0.2
0.4 0.8 0.2
0.5 0.8 0.2
0.6 0.8 0.2
0.7 0.8 0.2
0.8 0.8 0.2
0.9 0.8 0.2
1 0.8 0.2
0.1 0.9 0.2
0 0.9 0.2
0.2 0.9 0.2
0.3 0.9 0.2
0.4 0.9 0.2
0.5 0.9 0.2
0.6 0.9 0.2
0.7 0.9 0.2
0.8 0.9 0.2
0.9 0.9 0.2
1 0.9 0.2
0.1 1 0.2
0 1 0.2
0.2 1 0.2
0.3 1 0.2
0.4 1 0.2
0.5 1 0.2
0.6 1 0.2
0.7 1 0.2
0.8 1 0.2
0.9 1 0.2
1 1 0.2
0.1 0.1 0.3
0.1 0 0.3
0 0 0.3
0 0.1 0.3
0.2 0.1 0.3
0.2 0 0.3
0.3 0.1 0.3
0.3 0 0.3
0.4 0.1 0.3
0.4 0 0.3
0.5 0.1 0.3
0.5 0 0.3
0.6 0.1 0.3
0.6 0 0.3
0.7 0.1 0.3
0.7 0 0.3
0.8 0.1 0.3
0.8 0 0.3
0.9 0.1 0.3
0.9 0 0.3
1 0.1 0.3
1 0 0.3
0.1 0.2 0.3
0 0.2 0.3
0.2 0.2 0.3
0.3 0.2 0.3
0.4 0.2 0.3
0.5 0.2 0.3
0.6 0.2 0.3
0.7 0.2 0.3
0.8 0.2 0.3
0.9 0.2 0.3
1 0.2 0.3
0.1 0.3 0.3
0 0.3 0.3
0.2 0.3 0.3
0.3 0.3 0.3
0.4 0.3 0.3
0.5 0.3 0.3
0.6 0.3 0.3
0.7 0.3 0.3
0.8 0.3 0.3
0.9 0.3 0.3
1 0.3 0.3
0.1 0.4 0.3
0 0.4 0.3
0.2 0.4 0.3
0.3 0.4 0.3
0.4 0.4 0.3
0.5 0.4 0.3
0.6 0.4 0.3
0.7 0.4 0.3
0.8 0.4 0.3
0.9 0.4 0.3
1 0.4 0.3
0.1 0.5 0.3
0 0.5 0.3
0.2 0.5 0.3
0.3 0.5 0.3
0.4 0.5 0.3
0.5 0.5 0.3
0.6 0.5 0.3
0.7 0.5 0.3
0.8 0.5 0.3
0.9 0.5 0.3
1 0.5 0.3
0.1 0.6 0.3
0 0.6 0.3
0.2 0.6 0.3
0.3 0.6 0.3
0.4 0.6 0.3
0.5 0.6 0.3
0.6 0.6 0.3
0.7 0.6 0.3
0.8 0.6 0.3
0.9 0.6 0.3
1 0.6 0.3
0.1 0.7 0.3
0 0.7 0.3
0.2 0.7 0.3
0.3 0.7 0.3
0.4 0.7 0.3
0.5 0.7 0.3
0.6 0.7 0.3
0.7 0.7 0.3
0.8 0.7 0.3
0.9 0.7 0.3
1 0.7 0.3
0.1 0.8 0.3
0 0.8 0.3
0.2 0.8 0.3
0.3 0.8 0.3
0.4 0.8 0.3
0.5 0.8 0.3
0.6 0.8 0.3
0.7 0.8 0.3
0.8 0.8 0.3
0.9 0.8 0.3
1 0.8 0.3
0.1 0.9 0.3
0 0.9 0.3
0.2 0.9 0.3
0.3 0.9 0.3
0.4 0.9 0.3
0.5 0.9 0.3
0.6 0.9 0.3
0.7 0.9 0.3
0.8 0.9 0.3
0.9 0.9 0.3
1 0.9 0.3
0.1 1 0.3
0 1 0.3
0.2 1 0.3
0.3 1 0.3
0.4 1 0.3
0.5 1 0.3
0.6 1 0.3
0.7 1 0.3
0.8 1 0.3
0.9 1 0.3
1 1 0.3
0.1 0.1 0.4
0.1 0 0.4
0 0 0.4
0 0.1 0.4
0.2 0.1 0.4
0.2 0 0.4
0.3 0.1 0.4
0.3 0 0.4
0.4 0.1 0.4
0.4 0 0.4
0.5 0.1 0.4
0.5 0 0.4
0.6 0.1 0.4
0.6 0 0.4
0.7 0.1 0.4
0.7 0 0.4
0.8 0.1 0.4
0.8 0 0.4
0.9 0.1 0.4
0.9 0 0.4
1 0.1 0.4
1 0 0.4
0.1 0.2 0.4
0 0.2 0.4
0.2 0.2 0.4
0.3 0.2 0.4
0.4 0.2 0.4
0.5 0.2 0.4
0.6 0.2 0.4
0.7 0.2 0.4
0.8 0.2 0.4
0.9 0.2 0.4
1 0.2 0.4
0.1 0.3 0.4
0 0.3 0.4
0.2 0.3 0.4
0.3 0.3 0.4
0.4 0.3 0.4
0.5 0.3 0.4
0.6 0.3 0.4
0.7 0.3 0.4
0.8 0.3 0.4
0.9 0.3 0.4
1 0.3 0.4
0.1 0.4 0.4
0 0.4 0.4
0.2 0.4 0.4
0.3 0.4 0.4
0.4 0.4 0.4
0.5 0.4 0.4
0.6 0.4 0.4
0.7 0.4 0.4
0.8 0.4 0.4
0.9 0.4 0.4
1 0.4 0.4
0.1 0.5 0.4
0 0.5 0.4
0.2 0.5 0.4
0.3 0.5 0.4
0.4 0.5 0.4
0.5 0.5 0.4
0.6 0.5 0.4
0.7 0.5 0.4
0.8 0.5 0.4
0.9 0.5 0.4
1 0.5 0.4
0.1 0.6 0.4
0 0.6 0.4
0.2 0.6 0.4
0.3 0.6 0.4
0.4 0.6 0.4
0.5 0.6 0.4
0.6 0.6 0.4
0.7 0.6 0.4
0.8 0.6 0.4
0.9 0.6 0.4
1 0.6 0.4
0.1 0.7 0.4
0 0.7 0.4
0.2 0.7 0.4
0.3 0.7 0.4
0.4 0.7 0.4
0.5 0.7 0.4
0.6 0.7 0.4
0.7 0.7 0.4
0.8 0.7 0.4
0.9 0.7 0.4
1 0.7 0.4
0.1 0.8 0.4
0 0.8 0.4
0.2 0.8 0.4
0.3 0.8 0.4
0.4 0.8 0.4
0.5 0.8 0.4
0.6 0.8 0.4
0.7 0.8 0.4
0.8 0.8 0.4
0.9 0.8 0.4
1 0.8 0.4
0.1 0.9 0.4
0 0.9 0.4
0.2 0.9 0.4
0.3 0.9 0.4
0.4 0.9 0.4
0.5 0.9 0.4
0.6 0.9 0.4
0.7 0.9 0.4
0.8 0.9 0.4
0.9 0.9 0.4
1 0.9 0.4
0.1 1 0.4
0 1 0.4
0.2 1 0.4
0.3 1 0.4
0.4 1 0.4
0.5 1 0.4
0.6 1 0.4
0.7 1 0.4
0.8 1 0.4
0.9 1 0.4
1 1 0.4
0.1 0.1 0.5
0.1 0 0.5
0 0 0.5
0 0.1 0.5
0.2 0.1 0.5
0.2 0 0.5
0.3 0.1 0.5
0.3 0 0.5
0.4 0.1 0.5
0.4 0 0.5
0.5 0.1 0.5
0.5 0 0.5
0.6 0.1 0.5
0.6 0 0.5
0.7 0.1 0.5
0.7 0 0.5
0.8 0.1 0.5
0.8 0 0.5
0.9 0.1 0.5
0.9 0 0.5
1 0.1 0.5
1 0 0.5
0.1 0.2 0.5
0 0.2 0.5
0.2 0.2 0.5
0.3 0.2 0.5
0.4 0.2 0.5
0.5 0.2 0.5
0.6 0.2 0.5
0.7 0.2 0.5
0.8 0.2 0.5
0.9 0.2 0.5
1 0.2 0.5
0.1 0.3 0.5
0 0.3 0.5
0.2 0.3 0.5
0.3 0.3 0.5
0.4 0.3 0.5
0.5 0.3 0.5
0.6 0.3 0.5
0.7 0.3 0.5
0.8 0.3 0.5
0.9 0.3 0.5
1 0.3 0.5
0.1 0.4 0.5
0 0.4 0.5
0.2 0.4 0.5
0.3 0.4 0.5
0.4 0.4 0.5
0.5 0.4 0.5
0.6 0.4 0.5
0.7 0.4 0.5
0.8 0.4 0.5
0.9 0.4 0.5
1 0.4 0.5
0.1 0.5 0.5
0 0.5 0.5
0.2 0.5 0.5
0.3 0.5 0.5
0.4 0.5 0.5
0.5 0.5 0.5
0.6 0.5 0.5
0.7 0.5 0.5
0.8 0.5 0.5
0.9 0.5 0.5
1 0.5 0.5
0.1 0.6 0.5
0 0.6 0.5
0.2 0.6 0.5
0.3 0.6 0.5
0.4 0.6 0.5
0.5 0.6 0.5
0.6 0.6 0.5
0.7 0.6 0.5
0.8 0.6 0.5
0.9 0.6 0.5
1 0.6 0.5
0.1 0.7 0.5
0 0.7 0.5
0.2 0.7 0.5
0.3 0.7 0.5
0.4 0.7 0.5
0.5 0.7 0.5
0.6 0.7 0.5
0.7 0.7 0.5
0.8 0.7 0.5
0.9 0.7 0.5
1 0.7 0.5
0.1 0.8 0.5
0 0.8 0.5
0.2 0.8 0.5
0.3 0.8 0.5
0.4 0.8 0.5
0.5 0.8 0.5
0.6 0.8 0.5
0.7 0.8 0.5
0.8 0.8 0.5
0.9 0.8 0.5
1 0.8 0.5
0.1 0.9 0.5
0 0.9 0.5
0.2 0.9 0.5
0.3 0.9 0.5
0.4 0.9 0.5
0.5 0.9 0.5
0.6 0.9 0.5
0.7 0.9 0.5
0.8 0.9 0.5
0.9 0.9 0.5
1 0.9 0.5
0.1 1 0.5
0 1 0.5
0.2 1 0.5
0.3 1 0.5
0.4 1 0.5
0.5 1 0.5
0.6 1 0.5
0.7 1 0.5
0.8 1 0.5
0.9 1 0.5
1 1 0.5
0.1 0.1 0.6
0.1 0 0.6
0 0 0.6
0 0.1 0.6
0.2 0.1 0.6
0.2 0 0.6
0.3 0.1 0.6
0.3 0 0.6
0.4 0.1 0.6
0.4 0 0.6
0.5 0.1 0.6
0.5 0 0.6
0.6 0.1 0.6
0.6 0 0.6
0.7 0.1 0.6
0.7 0 0.6
0.8 0.1 0.6
0.8 0 0.6
0.9 0.1 0.6
0.9 0 0.6
1 0.1 0.6
1 0 0.6
0.1 0.2 0.6
0 0.2 0.6
0.2 0.2 0.6
0.3 0.2 0.6
0.4 0.2 0.6
0.5 0.2 0.6
0.6 0.2 0.6
0.7 0.2 0.6
0.8 0.2 0.6
0.9 0.2 0.6
1 0.2 0.6
0.1 0.3 0.6
0 0.3 0.6
0.2 0.3 0.6
0.3 0.3 0.6
0.4 0.3 0.6
0.5 0.3 0.6
0.6 0.3 0.6
0.7 0.3 0.6
0.8 0.3 0.6
0.9 0.3 0.6
1 0.3 0.6
0.1 0.4 0.6
0 0.4 0.6
0.2 0.4 0.6
0.3 0.4 0.6
0.4 0.4 0.6
0.5 0.4 0.6
0.6 0.4 0.6
0.7 0.4 0.6
0.8 0.4 0.6
0.9 0.4 0.6
1 0.4 0.6
0.1 0.5 0.6
0 0.5 0.6
0.2 0.5 0.6
0.3 0.5 0.6
0.4 0.5 0.6
0.5 0.5 0.6
0.6 0.5 0.6
0.7 0.5 0.6
0.8 0.5 0.6
0.9 0.5 0.6
1 0.5 0.6
0.1 0.6 0.6
0 0.6 0.6
0.2 0.6 0.6
0.3 0.6 0.6
0.4 0.6 0.6
0.5 0.6 0.6
0.6 0.6 0.6
0.7 0.6 0.6
0.8 0.6 0.6
0.9 0.6 0.6
1 0.6 0.6
0.1 0.7 0.6
0 0.7 0.6
0.2 0.7 0.6
0.3 0.7 0.6
0.4 0.7 0.6
0.5 0.7 0.6
0.6 0.7 0.6
0.7 0.7 0.6
0.8 0.7 0.6
0.9 0.7 0.6
1 0.7 0.6
0.1 0.8 0.6
0 0.8 0.6
0.2 0.8 0.6
0.3 0.8 0.6
0.4 0.8 0.6
0.5 0.8 0.6
0.6 0.8 0.6
0.7 0.8 0.6
0.8 0.8 0.6
0.9 0.8 0.6
1 0.8 0.6
0.1 0.9 0.6
0 0.9 0.6
0.2 0.9 0.6
0.3 0.9 0.6
0.4 0.9 0.6
0.5 0.9 0.6
0.6 0.9 0.6
0.7 0.9 0.6
0.8 0.9 0.6
0.9 0.9 0.6
1 0.9 0.6
0.1 1 0.6
0 1 0.6
0.2 1 0.6
0.3 1 0.6
0.4 1 0.6
0.5 1 0.6
0.6 1 0.6
0.7 1 0.6
0.8 1 0.6
0.9 1 0.6
1 1 0.6
0.1 0.1 0.7
0.1 0 0.7
0 0 0.7
0 0.1 0.7
0.2 0.1 0.7
0.2 0 0.7
0.3 0.1 0.7
0.3 0 0.7
0.4 0.1 0.7
0.4 0 0.7
0.5 0.1 0.7
0.5 0 0.7
0.6 0.1 0.7
0.6 0 0.7
0.7 0.1 0.7
0.7 0 0.7
0.8 0.1 0.7
0.8 0 0.7
0.9 0.1 0.7
0.9 0 0.7
1 0.1 0.7
1 0 0.7
0.1 0.2 0.7
0 0.2 0.7
0.2 0.2 0.7
0.3 0.2 0.7
0.4 0.2 0.7
0.5 0.2 0.7
0.6 0.2 0.7
0.7 0.2 0.7
0.8 0.2 0.7
0.9 0.2 0.7
1 0.2 0.7
0.1 0.3 0.7
0 0.3 0.7
0.2 0.3 0.7
0.3 0.3 0.7
0.4 0.3 0.7
0.5 0.3 0.7
0.6 0.3 0.7
0.7 0.3 0.7
0.8 0.3 0.7
0.9 0.3 0.7
1 0.3 0.7
0.1 0.4 0.7
0 0.4 0.7
0.2 0.4 0.7
0.3 0.4 0.7
0.4 0.4 0.7
0.5 0.4 0.7
0.6 0.4 0.7
0.7 0.4 0.7
[...]
POINT_DATA 1331
SCALARS sol float
LOOKUP_TABLE default
-9.02463e-42
0.0975372
-3.00914e-42
-4.49327e-42
0.101346
0.0972572
-4.49327e-42
0.101346
-8.9956e-42
0.10044
-4.49423e-42
0.101154
-8.99462e-42
0.100538
-4.49897e-42
0.100206
-8.99667e-42
0.100333
-4.49801e-42
0.100397
-8.99214e-42
0.100786
-4.50238e-42
0.0995234
-8.9978e-42
0.10022
-4.51525e-42
0.0969507
-9.01355e-42
0.0986448
-4.50051e-42
0.099898
-8.9969e-42
0.10031
-4.49793e-42
0.100415
-8.99873e-42
0.100127
-4.49881e-42
0.100238
-4.50071e-42
0.099857
-1.5004e-42
0.0997573
-8.99559e-42
0.100441
-4.49432e-42
0.101137
-9.0242e-42
0.0975796
-8.99717e-42
0.100283
-8.99314e-42
0.100686
-9.0052e-42
0.0994801
-8.99088e-42
0.100912
-8.99917e-42
0.100083
-9.00072e-42
0.0999284
-8.99945e-42
0.100055
-4.50025e-42
0.0999499
-8.99468e-42
0.100532
-4.49837e-42
0.100325
-8.99718e-42
0.100282
-9.01885e-42
0.0981149
-8.99708e-42
0.100292
-8.99149e-42
0.100851
-9.00439e-42
0.0995605
-8.99349e-42
0.100651
-8.99987e-42
0.100013
-9.00015e-42
0.0999854
-4.50014e-42
0.0999711
-8.99676e-42
0.100324
-4.49809e-42
0.100382
-8.99481e-42
0.100519
-8.99722e-42
0.100278
-9.01188e-42
0.0988121
-8.9975e-42
0.10025
-8.99369e-42
0.100631
-9.00074e-42
0.0999258
-9.0009e-42
0.09991
-8.99972e-42
0.100028
-4.50018e-42
0.0999634
-8.99499e-42
0.100501
-4.50257e-42
0.0994866
-8.99846e-42
0.100154
-8.99459e-42
0.100541
-8.99783e-42
0.100217
-9.00619e-42
0.0993812
-8.99872e-42
0.100128
-9.00091e-42
0.0999095
-9.00021e-42
0.099979
-9.00004e-42
0.0999961
-4.50048e-42
0.0999046
-8.99932e-42
0.100068
-4.5133e-42
0.0973392
-8.99509e-42
0.100491
-9.00057e-42
0.0999431
-8.99629e-42
0.100371
-8.99872e-42
0.100128
-9.00216e-42
0.0997842
-8.99958e-42
0.100042
-8.9995e-42
0.10005
-9.00039e-42
0.0999611
-4.49973e-42
0.100053
-9.00923e-42
0.0990772
-4.50235e-42
0.0995302
-8.99915e-42
0.100085
-8.99715e-42
0.100285
-9.00067e-42
0.0999332
-9.00042e-42
0.099958
-8.9994e-42
0.10006
-8.99945e-42
0.100055
-9.00174e-42
0.0998261
-8.99952e-42
0.100048
-4.4997e-42
0.100061
-8.99792e-42
0.100208
-4.49855e-42
0.10029
-8.99997e-42
0.100003
-9.00049e-42
0.0999507
-9.00053e-42
0.0999472
-8.99992e-42
0.100008
-8.99945e-42
0.100055
-9.00167e-42
0.0998328
-8.99896e-42
0.100104
-8.99967e-42
0.100033
-4.50036e-42
0.0999287
-8.99868e-42
0.100132
-4.49903e-42
0.100195
-8.99899e-42
0.100101
-8.9996e-42
0.10004
-8.99918e-42
0.100082
-8.99986e-42
0.100014
-9.00039e-42
0.0999607
-8.99956e-42
0.100044
-8.99972e-42
0.100028
-9.00034e-42
0.0999663
-4.4996e-42
0.10008
-4.50086e-42
0.0998271
-1.50082e-42
0.0995109
-4.50042e-42
0.0999163
-4.50048e-42
0.0999048
-4.50015e-42
0.0999703
-4.50053e-42
0.0998943
-4.49978e-42
0.100044
-4.4997e-42
0.10006
-4.50035e-42
0.0999302
-4.4996e-42
0.10008
-3.00048e-42
0.0998565
0.195129
0.202252
0.194432
0.202251
0.200685
0.202297
0.201078
0.20039
0.200638
0.200798
0.201551
0.198905
0.200322
0.193928
0.197289
0.199684
0.200608
0.200822
0.20025
0.200469
0.199716
0.199521
0.200686
0.202266
0.195227
0.200435
0.201361
0.198936
0.201801
0.200137
0.199857
0.200111
0.199901
0.201066
0.200626
0.200434
0.196267
0.20051
0.201682
0.199097
0.201295
0.200022
0.199971
0.199943
0.200632
0.200768
0.201042
0.200486
0.197638
0.200464
0.201256
0.199841
0.199822
0.200057
0.199928
0.201001
0.198877
0.200297
0.20108
0.200406
0.198769
0.200247
0.199822
0.199959
0.199992
0.199811
0.200066
0.194709
0.200981
0.199882
0.200738
0.200249
0.199572
0.200083
0.200098
0.199923
0.200105
0.198149
0.199006
0.200161
0.200568
0.199867
0.199916
0.200118
0.200108
0.199656
0.200094
0.20012
0.200412
0.200575
0.200003
0.199902
0.199895
0.200016
0.200109
0.199669
0.200205
0.200066
0.199859
0.20026
0.20038
0.2002
0.200079
0.200163
0.200028
0.199922
0.200086
0.200054
0.199933
0.200159
0.199656
0.199035
0.199834
0.199812
0.199941
0.199791
0.200086
0.200118
0.199862
0.200157
0.199716
0.292801
0.302452
0.291723
0.302452
0.300586
0.3034
0.301614
0.300533
0.300889
0.301202
0.30227
0.298068
0.300193
0.291011
0.295917
0.299258
0.300876
0.301216
0.300365
0.300687
0.29958
0.299294
0.300588
0.303361
0.292995
0.300349
0.302013
0.298346
0.302641
0.300127
0.29978
0.300164
0.299853
0.301598
0.300878
0.300351
0.294482
0.300585
0.302469
0.298581
0.30192
0.30002
0.299958
0.299917
0.300908
0.30116
0.30157
0.300562
0.296483
0.300609
0.301863
0.299733
0.299739
0.300084
0.299893
0.301494
0.298115
0.300419
0.301615
0.30054
0.298165
0.300347
0.299738
0.299942
0.299988
0.299722
0.299921
0.292166
0.301468
0.299811
0.301097
0.300357
0.299365
0.300123
0.300143
0.299887
0.300154
0.297201
0.298373
0.300214
0.300845
0.299799
0.299875
0.300173
0.300155
0.299493
0.300138
0.300177
0.300603
0.30085
0.299997
0.299855
0.299845
0.300024
0.300159
0.299512
0.3003
0.300096
0.299792
0.300381
0.300548
0.300294
0.300115
0.300239
0.300041
0.299886
0.300126
0.30008
0.299901
0.300232
0.299488
0.298581
0.299756
0.299723
0.299913
0.299692
0.300126
0.300173
0.299797
0.30023
0.299582
0.390632
0.40189
0.38938
0.40189
0.400084
0.404388
0.402123
0.400617
0.401065
0.401598
0.402903
0.396978
0.399763
0.388265
0.394526
0.398554
0.401096
0.401587
0.400468
0.400884
0.39945
0.399082
0.400087
0.404348
0.390941
0.399972
0.402623
0.397691
0.403396
0.400025
0.399695
0.400216
0.399807
0.402106
0.401061
0.399979
0.392789
0.400473
0.403185
0.397985
0.402508
0.400005
0.399945
0.399892
0.401137
0.401555
0.402095
0.400461
0.395359
0.400655
0.402435
0.399591
0.39966
0.40011
0.399862
0.401967
0.397169
0.400509
0.402142
0.400594
0.397574
0.400418
0.399661
0.399928
0.399983
0.399639
0.399581
0.38976
0.401947
0.399726
0.401443
0.400442
0.399166
0.400158
0.400182
0.399853
0.400198
0.396225
0.397592
0.400233
0.401113
0.39973
0.399834
0.400222
0.400197
0.39934
0.400177
0.400229
0.400772
0.401106
0.39998
0.399809
0.399797
0.400031
0.400204
0.399365
0.400386
0.400123
0.39973
0.400492
0.400693
0.400382
0.400148
0.400309
0.400052
0.399852
0.400161
0.400102
0.39987
0.400299
0.399325
0.39816
0.399682
0.399641
0.399887
0.399601
0.400163
0.400225
0.399736
0.400296
0.399457
0.488758
0.500698
0.401807
0.500699
0.499198
0.505132
0.502561
0.50063
0.501147
0.501966
0.503397
0.495637
0.49902
0.485737
0.493126
0.497545
0.501248
0.501923
0.500558
0.501057
0.499329
0.498888
0.499201
0.5051
0.489134
0.499307
0.503154
0.496952
0.504021
0.499812
0.499596
0.500264
0.499764
0.502548
0.501161
0.49932
0.491225
0.500156
0.503794
0.497287
0.503036
0.499974
0.499935
0.499871
0.501307
0.50194
0.502597
0.500165
0.494281
0.500586
0.502951
0.499408
0.499588
0.500134
0.499833
0.502395
0.496026
0.500557
0.50265
0.500551
0.497003
0.500455
0.499591
0.499918
0.499978
0.499564
0.499028
0.487526
0.502409
0.499623
0.501771
0.5005
0.498978
0.50019
0.500216
0.499822
0.500237
0.495223
0.496637
0.500203
0.501369
0.49966
0.499795
0.500266
0.50023
0.499201
0.50021
0.500276
0.500909
0.501334
0.499948
0.499765
0.499752
0.500038
0.500243
0.499232
0.500459
0.500146
0.499674
0.50059
0.50081
0.50046
0.500177
0.50037
0.500061
0.499822
0.500192
0.500121
0.499841
0.500357
0.499168
0.497776
0.499614
0.499566
0.499863
0.499518
0.500195
0.50027
0.499681
0.500353
0.499343
0.498686
0.507243
0.408552
0.507233
0.598014
0.605477
0.602861
0.600574
0.601124
0.602282
0.603692
0.594064
0.597997
0.583458
0.591743
0.596241
0.601313
0.602208
0.600632
0.601199
0.599218
0.598714
0.598017
0.605461
0.587649
0.598401
0.603561
0.596117
0.604464
0.599478
0.59948
0.600307
0.599725
0.602859
0.601173
0.59842
0.589833
0.599645
0.604254
0.596469
0.603471
0.599925
0.599926
0.599853
0.601407
0.602296
0.603043
0.599678
0.593272
0.600397
0.603381
0.599179
0.599523
0.600155
0.599808
0.602747
0.594682
0.600557
0.603125
0.600401
0.596461
0.600456
0.599529
0.599911
0.599973
0.599499
0.598267
0.585489
0.602837
0.599496
0.602072
0.600524
0.598803
0.600215
0.600243
0.599796
0.60027
0.594203
0.595501
0.600114
0.601608
0.599588
0.599758
0.600301
0.600254
0.599079
0.600237
0.600315
0.601
0.601521
0.599897
0.599724
0.599712
0.600045
0.600275
0.599115
0.600519
0.600165
0.599624
0.600673
0.600896
0.600527
0.600201
0.600422
0.600068
0.599796
0.600216
0.600136
0.599815
0.600405
0.59902
0.597436
0.599553
0.599502
0.599842
0.599446
0.600221
0.600309
0.599632
0.600401
0.599242
0.506289
0.491351
0.39367
0.491364
0.604831
0.588797
0.702951
0.603723
0.700995
0.702519
0.703741
0.692275
0.696755
0.681455
0.690413
0.694672
0.701278
0.70242
0.700691
0.701307
0.69912
0.698565
0.604827
0.588834
0.597926
0.697334
0.703791
0.695189
0.704671
0.699028
0.699342
0.700343
0.699692
0.702968
0.603682
0.697354
0.688661
0.698972
0.704524
0.695522
0.703779
0.699862
0.69992
0.699839
0.701433
0.702598
0.703389
0.699025
0.692363
0.700095
0.703692
0.698907
0.699464
0.700172
0.699788
0.70299
0.693126
0.700503
0.703543
0.700142
0.695961
0.70042
0.699474
0.699906
0.699968
0.699445
0.697319
0.683675
0.703212
0.699344
0.702336
0.700511
0.698646
0.700234
0.700262
0.699774
0.700295
0.693185
0.69419
0.699951
0.701825
0.699514
0.699724
0.700326
0.700268
0.698976
0.700257
0.700347
0.701033
0.701653
0.699827
0.699686
0.699676
0.70005
0.700298
0.699017
0.700562
0.700178
0.699584
0.700737
0.70095
0.70058
0.70022
0.700464
0.700073
0.699774
0.700234
0.700146
0.699793
0.700442
0.698886
0.697144
0.699501
0.699448
0.699824
0.699386
0.700242
0.70034
0.699592
0.700438
0.699158
0.49465
0.476258
0.379009
0.476342
0.592655
0.573316
0.690499
0.592661
0.704697
0.691404
0.803514
0.790263
0.795372
0.77976
0.789174
0.792884
0.801134
0.802532
0.800732
0.801378
0.799039
0.798442
0.592748
0.573451
0.606248
0.705209
0.803803
0.794189
0.804599
0.798484
0.799177
0.800369
0.799664
0.690754
0.592922
0.70508
0.698718
0.798188
0.80457
0.794452
0.803921
0.79979
0.799916
0.799828
0.703988
0.692068
0.803593
0.798243
0.791583
0.799703
0.803849
0.798598
0.79941
0.800185
0.799773
0.803094
0.791328
0.800396
0.803878
0.79978
0.795517
0.800353
0.799425
0.799904
0.799963
0.799404
0.796215
0.782119
0.803509
0.799169
0.802552
0.80046
0.798509
0.800244
0.800273
0.799758
0.800313
0.792192
0.792721
0.799708
0.802013
0.799441
0.799695
0.800341
0.800273
0.798896
0.800269
0.80037
0.800993
0.801711
0.799733
0.799652
0.799645
0.800054
0.800314
0.79894
0.80059
0.800185
0.799552
0.800783
0.800972
0.800619
0.800232
0.800493
0.800076
0.799758
0.800245
0.800152
0.799774
0.800467
0.79877
0.796902
0.799458
0.799407
0.79981
0.799341
0.800256
0.800363
0.799562
0.800462
0.799091
0.484026
0.463264
0.366153
0.463474
0.58188
0.560188
0.679626
0.58187
0.695878
0.680747
0.794802
0.779665
0.893929
0.878416
0.888056
0.890927
0.900878
0.902518
0.900755
0.901409
0.898976
0.898349
0.582167
0.560486
0.597154
0.695911
0.794537
0.805472
0.904222
0.897887
0.898982
0.900385
0.899643
0.680202
0.582721
0.696062
0.705879
0.805272
0.904372
0.893282
0.903863
0.899715
0.899913
0.899821
0.696229
0.68219
0.794952
0.805101
0.79958
0.899252
0.903821
0.898267
0.899361
0.900192
0.899763
0.795516
0.781625
0.804333
0.904104
0.899331
0.89514
0.900262
0.899381
0.899902
0.899959
0.899377
0.894984
0.880871
0.903702
0.898976
0.902703
0.900372
0.898395
0.900245
0.900277
0.899747
0.900322
0.891254
0.891119
0.899379
0.902162
0.899371
0.89967
0.900345
0.900268
0.898841
0.900273
0.900383
0.900872
0.901681
0.899618
0.899622
0.899621
0.900056
0.90032
0.898887
0.9006
0.900187
0.89953
0.900807
0.900962
0.900641
0.900239
0.900509
0.900076
0.899748
0.900248
0.900153
0.89976
0.900479
0.898675
0.896712
0.899427
0.89938
0.8998
0.89931
0.900263
0.900376
0.899541
0.900475
0.899043
0.478703
0.455548
0.358669
0.455937
0.576475
0.552302
0.674438
0.577837
0.689632
0.680171
0.78868
0.782952
0.887895
0.885943
0.98708
0.988853
1.00052
1.00236
1.00076
1.0014
0.998934
0.998289
0.576772
0.552823
0.591298
0.689877
0.788405
0.798135
0.89759
0.997287
0.998754
1.00039
0.999631
0.674918
0.578538
0.690433
0.698895
0.798072
0.897237
0.90467
1.00358
0.999644
0.99991
0.999818
0.691185
0.681033
0.789516
0.798483
0.80419
0.904006
1.00359
0.997932
0.999316
1.00019
0.99976
0.790811
0.783716
0.799059
0.898155
0.903558
0.900375
1.00016
0.999338
0.999899
0.999956
0.999365
0.890597
0.886548
0.898975
0.902761
1.00277
1.00025
0.998308
1.00024
1.00027
0.999742
1.00032
0.990397
0.989418
0.998968
1.00226
0.999308
0.99965
1.00034
1.00025
0.998811
1.00027
1.00039
1.00066
1.00155
0.99948
0.999598
0.999603
1.00006
1.00032
0.998859
1.00059
1.00018
0.99952
1.00081
1.00092
1.00064
1.00024
1.00051
1.00007
0.999743
1.00025
1.00015
0.999752
1.00048
0.998605
0.996576
0.999407
0.999367
0.999795
0.999296
1.00026
1.00038
0.99953
1.00047
0.999015
