# vtk DataFile Version 3.0
description of the mesh
ASCII
DATASET UNSTRUCTURED_GRID
POINTS 1331 float
0.1 0.1 0
0.1 0.1 0.1
0 0 0
0.1 0 0
0.1 0 0.1
0 0 0.1
0 0.1 0
0 0.1 0.1
0.2 0.1 0
0.2 0.1 0.1
0.2 0 0
0.2 0 0.1
0.3 0.1 0
0.3 0.1 0.1
0.3 0 0
0.3 0 0.1
0.4 0.1 0
0.4 0.1 0.1
0.4 0 0
0.4 0 0.1
0.5 0.1 0
0.5 0.1 0.1
0.5 0 0
0.5 0 0.1
0.6 0.1 0
0.6 0.1 0.1
0.6 0 0
0.6 0 0.1
0.7 0.1 0
0.7 0.1 0.1
0.7 0 0
0.7 0 0.1
0.8 0.1 0
0.8 0.1 0.1
0.8 0 0
0.8 0 0.1
0.9 0.1 0
0.9 0.1 0.1
0.9 0 0
0.9 0 0.1
1 0.1 0
1 0.1 0.1
1 0 0
1 0 0.1
0.1 0.2 0
0.1 0.2 0.1
0 0.2 0
0 0.2 0.1
0.2 0.2 0
0.2 0.2 0.1
0.3 0.2 0
0.3 0.2 0.1
0.4 0.2 0
0.4 0.2 0.1
0.5 0.2 0
0.5 0.2 0.1
0.6 0.2 0
0.6 0.2 0.1
0.7 0.2 0
0.7 0.2 0.1
0.8 0.2 0
0.8 0.2 0.1
0.9 0.2 0
0.9 0.2 0.1
1 0.2 0
1 0.2 0.1
0.1 0.3 0
0.1 0.3 0.1
0 0.3 0
0 0.3 0.1
0.2 0.3 0
0.2 0.3 0.1
0.3 0.3 0
0.3 0.3 0.1
0.4 0.3 0
0.4 0.3 0.1
0.5 0.3 0
0.5 0.3 0.1
0.6 0.3 0
0.6 0.3 0.1
0.7 0.3 0
0.7 0.3 0.1
0.8 0.3 0
0.8 0.3 0.1
0.9 0.3 0
0.9 0.3 0.1
1 0.3 0
1 0.3 0.1
0.1 0.4 0
0.1 0.4 0.1
0 0.4 0
0 0.4 0.1
0.2 0.4 0
0.2 0.4 0.1
0.3 0.4 0
0.3 0.4 0.1
0.4 0.4 0
0.4 0.4 0.1
0.5 0.4 0
0.5 0.4 0.1
0.6 0.4 0
0.6 0.4 0.1
0.7 0.4 0
0.7 0.4 0.1
0.8 0.4 0
0.8 0.4 0.1
0.9 0.4 0
0.9 0.4 0.1
1 0.4 0
1 0.4 0.1
0.1 0.5 0
0.1 0.5 0.1
0 0.5 0
0 0.5 0.1
0.2 0.5 0
0.2 0.5 0.1
0.3 0.5 0
0.3 0.5 0.1
0.4 0.5 0
0.4 0.5 0.1
0.5 0.5 0
0.5 0.5 0.1
0.6 0.5 0
0.6 0.5 0.1
0.7 0.5 0
0.7 0.5 0.1
0.8 0.5 0
0.8 0.5 0.1
0.9 0.5 0
0.9 0.5 0.1
1 0.5 0
1 0.5 0.1
0.1 0.6 0
0.1 0.6 0.1
0 0.6 0
0 0.6 0.1
0.2 0.6 0
0.2 0.6 0.1
0.3 0.6 0
0.3 0.6 0.1
0.4 0.6 0
0.4 0.6 0.1
0.5 0.6 0
0.5 0.6 0.1
0.6 0.6 0
0.6 0.6 0.1
0.7 0.6 0
0.7 0.6 0.1
0.8 0.6 0
0.8 0.6 0.1
0.9 0.6 0
0.9 0.6 0.1
1 0.6 0
1 0.6 0.1
0.1 0.7 0
0.1 0.7 0.1
0 0.7 0
0 0.7 0.1
0.2 0.7 0
0.2 0.7 0.1
0.3 0.7 0
0.3 0.7 0.1
0.4 0.7 0
0.4 0.7 0.1
0.5 0.7 0
0.5 0.7 0.1
0.6 0.7 0
0.6 0.7 0.1
0.7 0.7 0
0.7 0.7 0.1
0.8 0.7 0
0.8 0.7 0.1
0.9 0.7 0
0.9 0.7 0.1
1 0.7 0
1 0.7 0.1
0.1 0.8 0
0.1 0.8 0.1
0 0.8 0
0 0.8 0.1
0.2 0.8 0
0.2 0.8 0.1
0.3 0.8 0
0.3 0.8 0.1
0.4 0.8 0
0.4 0.8 0.1
0.5 0.8 0
0.5 0.8 0.1
0.6 0.8 0
0.6 0.8 0.1
0.7 0.8 0
0.7 0.8 0.1
0.8 0.8 0
0.8 0.8 0.1
0.9 0.8 0
0.9 0.8 0.1
1 0.8 0
1 0.8 0.1
0.1 0.9 0
0.1 0.9 0.1
0 0.9 0
0 0.9 0.1
0.2 0.9 0
0.2 0.9 0.1
0.3 0.9 0
0.3 0.9 0.1
0.4 0.9 0
0.4 0.9 0.1
0.5 0.9 0
0.5 0.9 0.1
0.6 0.9 0
0.6 0.9 0.1
0.7 0.9 0
0.7 0.9 0.1
0.8 0.9 0
0.8 0.9 0.1
0.9 0.9 0
0.9 0.9 0.1
1 0.9 0
1 0.9 0.1
0.1 1 0
0.1 1 0.1
0 1 0
0 1 0.1
0.2 1 0
0.2 1 0.1
0.3 1 0
0.3 1 0.1
0.4 1 0
0.4 1 0.1
0.5 1 0
0.5 1 0.1
0.6 1 0
0.6 1 0.1
0.7 1 0
0.7 1 0.1
0.8 1 0
0.8 1 0.1
0.9 1 0
0.9 1 0.1
1 1 0
1 1 0.1
0.1 0.1 0.2
0.1 0 0.2
0 0 0.2
0 0.1 0.2
0.2 0.1 0.2
0.2 0 0.2
0.3 0.1 0.2
0.3 0 0.2
0.4 0.1 0.2
0.4 0 0.2
0.5 0.1 0.2
0.5 0 0.2
0.6 0.1 0.2
0.6 0 0.2
0.7 0.1 0.2
0.7 0 0.2
0.8 0.1 0.2
0.8 0 0.2
0.9 0.1 0.2
0.9 0 0.2
1 0.1 0.2
1 0 0.2
0.1 0.2 0.2
0 0.2 0.2
0.2 0.2 0.2
0.3 0.2 0.2
0.4 0.2 0.2
0.5 0.2 0.2
0.6 0.2 0.2
0.7 0.2 0.2
0.8 0.2 0.2
0.9 0.2 0.2
1 0.2 0.2
0.1 0.3 0.2
0 0.3 0.2
0.2 0.3 0.2
0.3 0.3 0.2
0.4 0.3 0.2
0.5 0.3 0.2
0.6 0.3 0.2
0.7 0.3 0.2
0.8 0.3 0.2
0.9 0.3 0.2
1 0.3 0.2
0.1 0.4 0.2
0 0.4 0.2
0.2 0.4 0.2
0.3 0.4 0.2
0.4 0.4 0.2
0.5 0.4 0.2
0.6 0.4 0.2
0.7 0.4 0.2
0.8 0.4 0.2
0.9 0.4 0.2
1 0.4 0.2
0.1 0.5 0.2
0 0.5 0.2
0.2 0.5 0.2
0.3 0.5 0.2
0.4 0.5 0.2
0.5 0.5 0.2
0.6 0.5 0.2
0.7 0.5 0.2
0.8 0.5 0.2
0.9 0.5 0.2
1 0.5 0.2
0.1 0.6 0.2
0 0.6 0.2
0.2 0.6 0.2
0.3 0.6 0.2
0.4 0.6 0.2
0.5 0.6 0.2
0.6 0.6 0.2
0.7 0.6 0.2
0.8 0.6 0.2
0.9 0.6 0.2
1 0.6 0.2
0.1 0.7 0.2
0 0.7 0.2
0.2 0.7 0.2
0.3 0.7 0.2
0.4 0.7 0.2
0.5 0.7 0.2
0.6 0.7 0.2
0.7 0.7 0.2
0.8 0.7 0.2
0.9 0.7 0.2
1 0.7 0.2
0.1 0.8 0.2
0 0.8 0.2
0.2 0.8 0.2
0.3 0.8 0.2
0.4 0.8 0.2
0.5 0.8 0.2
0.6 0.8 0.2
0.7 0.8 0.2
0.8 0.8 0.2
0.9 0.8 0.2
1 0.8 0.2
0.1 0.9 0.2
0 0.9 0.2
0.2 0.9 0.2
0.3 0.9 0.2
0.4 0.9 0.2
0.5 0.9 0.2
0.6 0.9 0.2
0.7 0.9 0.2
0.8 0.9 0.2
0.9 0.9 0.2
1 0.9 0.2
0.1 1 0.2
0 1 0.2
0.2 1 0.2
0.3 1 0.2
0.4 1 0.2
0.5 1 0.2
0.6 1 0.2
0.7 1 0.2
0.8 1 0.2
0.9 1 0.2
1 1 0.2
0.1 0.1 0.3
0.1 0 0.3
0 0 0.3
0 0.1 0.3
0.2 0.1 0.3
0.2 0 0.3
0.3 0.1 0.3
0.3 0 0.3
0.4 0.1 0.3
0.4 0 0.3
0.5 0.1 0.3
0.5 0 0.3
0.6 0.1 0.3
0.6 0 0.3
0.7 0.1 0.3
0.7 0 0.3
0.8 0.1 0.3
0.8 0 0.3
0.9 0.1 0.3
0.9 0 0.3
1 0.1 0.3
1 0 0.3
0.1 0.2 0.3
0 0.2 0.3
0.2 0.2 0.3
0.3 0.2 0.3
0.4 0.2 0.3
0.5 0.2 0.3
0.6 0.2 0.3
0.7 0.2 0.3
0.8 0.2 0.3
0.9 0.2 0.3
1 0.2 0.3
0.1 0.3 0.3
0 0.3 0.3
0.2 0.3 0.3
0.3 0.3 0.3
0.4 0.3 0.3
0.5 0.3 0.3
0.6 0.3 0.3
0.7 0.3 0.3
0.8 0.3 0.3
0.9 0.3 0.3
1 0.3 0.3
0.1 0.4 0.3
0 0.4 0.3
0.2 0.4 0.3
0.3 0.4 0.3
0.4 0.4 0.3
0.5 0.4 0.3
0.6 0.4 0.3
0.7 0.4 0.3
0.8 0.4 0.3
0.9 0.4 0.3
1 0.4 0.3
0.1 0.5 0.3
0 0.5 0.3
0.2 0.5 0.3
0.3 0.5 0.3
0.4 0.5 0.3
0.5 0.5 0.3
0.6 0.5 0.3
0.7 0.5 0.3
0.8 0.5 0.3
0.9 0.5 0.3
1 0.5 0.3
0.1 0.6 0.3
0 0.6 0.3
0.2 0.6 0.3
0.3 0.6 0.3
0.4 0.6 0.3
0.5 0.6 0.3
0.6 0.6 0.3
0.7 0.6 0.3
0.8 0.6 0.3
0.9 0.6 0.3
1 0.6 0.3
0.1 0.7 0.3
0 0.7 0.3
0.2 0.7 0.3
0.3 0.7 0.3
0.4 0.7 0.3
0.5 0.7 0.3
0.6 0.7 0.3
0.7 0.7 0.3
0.8 0.7 0.3
0.9 0.7 0.3
1 0.7 0.3
0.1 0.8 0.3
0 0.8 0.3
0.2 0.8 0.3
0.3 0.8 0.3
0.4 0.8 0.3
0.5 0.8 0.3
0.6 0.8 0.3
0.7 0.8 0.3
0.8 0.8 0.3
0.9 0.8 0.3
1 0.8 0.3
0.1 0.9 0.3
0 0.9 0.3
0.2 0.9 0.3
0.3 0.9 0.3
0.4 0.9 0.3
0.5 0.9 0.3
0.6 0.9 0.3
0.7 0.9 0.3
0.8 0.9 0.3
0.9 0.9 0.3
1 0.9 0.3
0.1 1 0.3
0 1 0.3
0.2 1 0.3
0.3 1 0.3
0.4 1 0.3
0.5 1 0.3
0.6 1 0.3
0.7 1 0.3
0.8 1 0.3
0.9 1 0.3
1 1 0.3
0.1 0.1 0.4
0.1 0 0.4
0 0 0.4
0 0.1 0.4
0.2 0.1 0.4
0.2 0 0.4
0.3 0.1 0.4
0.3 0 0.4
0.4 0.1 0.4
0.4 0 0.4
0.5 0.1 0.4
0.5 0 0.4
0.6 0.1 0.4
0.6 0 0.4
0.7 0.1 0.4
0.7 0 0.4
0.8 0.1 0.4
0.8 0 0.4
0.9 0.1 0.4
0.9 0 0.4
1 0.1 0.4
1 0 0.4
0.1 0.2 0.4
0 0.2 0.4
0.2 0.2 0.4
0.3 0.2 0.4
0.4 0.2 0.4
0.5 0.2 0.4
0.6 0.2 0.4
0.7 0.2 0.4
0.8 0.2 0.4
0.9 0.2 0.4
1 0.2 0.4
0.1 0.3 0.4
0 0.3 0.4
0.2 0.3 0.4
0.3 0.3 0.4
0.4 0.3 0.4
0.5 0.3 0.4
0.6 0.3 0.4
0.7 0.3 0.4
0.8 0.3 0.4
0.9 0.3 0.4
1 0.3 0.4
0.1 0.4 0.4
0 0.4 0.4
0.2 0.4 0.4
0.3 0.4 0.4
0.4 0.4 0.4
0.5 0.4 0.4
0.6 0.4 0.4
0.7 0.4 0.4
0.8 0.4 0.4
0.9 0.4 0.4
1 0.4 0.4
0.1 0.5 0.4
0 0.5 0.4
0.2 0.5 0.4
0.3 0.5 0.4
0.4 0.5 0.4
0.5 0.5 0.4
0.6 0.5 0.4
0.7 0.5 0.4
0.8 0.5 0.4
0.9 0.5 0.4
1 0.5 0.4
0.1 0.6 0.4
0 0.6 0.4
0.2 0.6 0.4
0.3 0.6 0.4
0.4 0.6 0.4
0.5 0.6 0.4
0.6 0.6 0.4
0.7 0.6 0.4
0.8 0.6 0.4
0.9 0.6 0.4
1 0.6 0.4
0.1 0.7 0.4
0 0.7 0.4
0.2 0.7 0.4
0.3 0.7 0.4
0.4 0.7 0.4
0.5 0.7 0.4
0.6 0.7 0.4
0.7 0.7 0.4
0.8 0.7 0.4
0.9 0.7 0.4
1 0.7 0.4
0.1 0.8 0.4
0 0.8 0.4
0.2 0.8 0.4
0.3 0.8 0.4
0.4 0.8 0.4
0.5 0.8 0.4
0.6 0.8 0.4
0.7 0.8 0.4
0.8 0.8 0.4
0.9 0.8 0.4
1 0.8 0.4
0.1 0.9 0.4
0 0.9 0.4
0.2 0.9 0.4
0.3 0.9 0.4
0.4 0.9 0.4
0.5 0.9 0.4
0.6 0.9 0.4
0.7 0.9 0.4
0.8 0.9 0.4
0.9 0.9 0.4
1 0.9 0.4
0.1 1 0.4
0 1 0.4
0.2 1 0.4
0.3 1 0.4
0.4 1 0.4
0.5 1 0.4
0.6 1 0.4
0.7 1 0.4
0.8 1 0.4
0.9 1 0.4
1 1 0.4
0.1 0.1 0.5
0.1 0 0.5
0 0 0.5
0 0.1 0.5
0.2 0.1 0.5
0.2 0 0.5
0.3 0.1 0.5
0.3 0 0.5
0.4 0.1 0.5
0.4 0 0.5
0.5 0.1 0.5
0.5 0 0.5
0.6 0.1 0.5
0.6 0 0.5
0.7 0.1 0.5
0.7 0 0.5
0.8 0.1 0.5
0.8 0 0.5
0.9 0.1 0.5
0.9 0 0.5
1 0.1 0.5
1 0 0.5
0.1 0.2 0.5
0 0.2 0.5
0.2 0.2 0.5
0.3 0.2 0.5
0.4 0.2 0.5
0.5 0.2 0.5
0.6 0.2 0.5
0.7 0.2 0.5
0.8 0.2 0.5
0.9 0.2 0.5
1 0.2 0.5
0.1 0.3 0.5
0 0.3 0.5
0.2 0.3 0.5
0.3 0.3 0.5
0.4 0.3 0.5
0.5 0.3 0.5
0.6 0.3 0.5
0.7 0.3 0.5
0.8 0.3 0.5
0.9 0.3 0.5
1 0.3 0.5
0.1 0.4 0.5
0 0.4 0.5
0.2 0.4 0.5
0.3 0.4 0.5
0.4 0.4 0.5
0.5 0.4 0.5
0.6 0.4 0.5
0.7 0.4 0.5
0.8 0.4 0.5
0.9 0.4 0.5
1 0.4 0.5
0.1 0.5 0.5
0 0.5 0.5
0.2 0.5 0.5
0.3 0.5 0.5
0.4 0.5 0.5
0.5 0.5 0.5
0.6 0.5 0.5
0.7 0.5 0.5
0.8 0.5 0.5
0.9 0.5 0.5
1 0.5 0.5
0.1 0.6 0.5
0 0.6 0.5
0.2 0.6 0.5
0.3 0.6 0.5
0.4 0.6 0.5
0.5 0.6 0.5
0.6 0.6 0.5
0.7 0.6 0.5
0.8 0.6 0.5
0.9 0.6 0.5
1 0.6 0.5
0.1 0.7 0.5
0 0.7 0.5
0.2 0.7 0.5
0.3 0.7 0.5
0.4 0.7 0.5
0.5 0.7 0.5
0.6 0.7 0.5
0.7 0.7 0.5
0.8 0.7 0.5
0.9 0.7 0.5
1 0.7 0.5
0.1 0.8 0.5
0 0.8 0.5
0.2 0.8 0.5
0.3 0.8 0.5
0.4 0.8 0.5
0.5 0.8 0.5
0.6 0.8 0.5
0.7 0.8 0.5
0.8 0.8 0.5
0.9 0.8 0.5
1 0.8 0.5
0.1 0.9 0.5
0 0.9 0.5
0.2 0.9 0.5
0.3 0.9 0.5
0.4 0.9 0.5
0.5 0.9 0.5
0.6 0.9 0.5
0.7 0.9 0.5
0.8 0.9 0.5
0.9 0.9 0.5
1 0.9 0.5
0.1 1 0.5
0 1 0.5
0.2 1 0.5
0.3 1 0.5
0.4 1 0.5
0.5 1 0.5
0.6 1 0.5
0.7 1 0.5
0.8 1 0.5
0.9 1 0.5
1 1 0.5
0.1 0.1 0.6
0.1 0 0.6
0 0 0.6
0 0.1 0.6
0.2 0.1 0.6
0.2 0 0.6
0.3 0.1 0.6
0.3 0 0.6
0.4 0.1 0.6
0.4 0 0.6
0.5 0.1 0.6
0.5 0 0.6
0.6 0.1 0.6
0.6 0 0.6
0.7 0.1 0.6
0.7 0 0.6
0.8 0.1 0.6
0.8 0 0.6
0.9 0.1 0.6
0.9 0 0.6
1 0.1 0.6
1 0 0.6
0.1 0.2 0.6
0 0.2 0.6
0.2 0.2 0.6
0.3 0.2 0.6
0.4 0.2 0.6
0.5 0.2 0.6
0.6 0.2 0.6
0.7 0.2 0.6
0.8 0.2 0.6
0.9 0.2 0.6
1 0.2 0.6
0.1 0.3 0.6
0 0.3 0.6
0.2 0.3 0.6
0.3 0.3 0.6
0.4 0.3 0.6
0.5 0.3 0.6
0.6 0.3 0.6
0.7 0.3 0.6
0.8 0.3 0.6
0.9 0.3 0.6
1 0.3 0.6
0.1 0.4 0.6
0 0.4 0.6
0.2 0.4 0.6
0.3 0.4 0.6
0.4 0.4 0.6
0.5 0.4 0.6
0.6 0.4 0.6
0.7 0.4 0.6
0.8 0.4 0.6
0.9 0.4 0.6
1 0.4 0.6
0.1 0.5 0.6
0 0.5 0.6
0.2 0.5 0.6
0.3 0.5 0.6
0.4 0.5 0.6
0.5 0.5 0.6
0.6 0.5 0.6
0.7 0.5 0.6
0.8 0.5 0.6
0.9 0.5 0.6
1 0.5 0.6
0.1 0.6 0.6
0 0.6 0.6
0.2 0.6 0.6
0.3 0.6 0.6
0.4 0.6 0.6
0.5 0.6 0.6
0.6 0.6 0.6
0.7 0.6 0.6
0.8 0.6 0.6
0.9 0.6 0.6
1 0.6 0.6
0.1 0.7 0.6
0 0.7 0.6
0.2 0.7 0.6
0.3 0.7 0.6
0.4 0.7 0.6
0.5 0.7 0.6
0.6 0.7 0.6
0.7 0.7 0.6
0.8 0.7 0.6
0.9 0.7 0.6
1 0.7 0.6
0.1 0.8 0.6
0 0.8 0.6
0.2 0.8 0.6
0.3 0.8 0.6
0.4 0.8 0.6
0.5 0.8 0.6
0.6 0.8 0.6
0.7 0.8 0.6
0.8 0.8 0.6
0.9 0.8 0.6
1 0.8 0.6
0.1 0.9 0.6
0 0.9 0.6
0.2 0.9 0.6
0.3 0.9 0.6
0.4 0.9 0.6
0.5 0.9 0.6
0.6 0.9 0.6
0.7 0.9 0.6
0.8 0.9 0.6
0.9 0.9 0.6
1 0.9 0.6
0.1 1 0.6
0 1 0.6
0.2 1 0.6
0.3 1 0.6
0.4 1 0.6
0.5 1 0.6
0.6 1 0.6
0.7 1 0.6
0.8 1 0.6
0.9 1 0.6
1 1 0.6
0.1 0.1 0.7
0.1 0 0.7
0 0 0.7
0 0.1 0.7
0.2 0.1 0.7
0.2 0 0.7
0.3 0.1 0.7
0.3 0 0.7
0.4 0.1 0.7
0.4 0 0.7
0.5 0.1 0.7
0.5 0 0.7
0.6 0.1 0.7
0.6 0 0.7
0.7 0.1 0.7
0.7 0 0.7
0.8 0.1 0.7
0.8 0 0.7
0.9 0.1 0.7
0.9 0 0.7
1 0.1 0.7
1 0 0.7
0.1 0.2 0.7
0 0.2 0.7
0.2 0.2 0.7
0.3 0.2 0.7
0.4 0.2 0.7
0.5 0.2 0.7
0.6 0.2 0.7
0.7 0.2 0.7
0.8 0.2 0.7
0.9 0.2 0.7
1 0.2 0.7
0.1 0.3 0.7
0 0.3 0.7
0.2 0.3 0.7
0.3 0.3 0.7
0.4 0.3 0.7
0.5 0.3 0.7
0.6 0.3 0.7
0.7 0.3 0.7
0.8 0.3 0.7
0.9 0.3 0.7
1 0.3 0.7
0.1 0.4 0.7
0 0.4 0.7
0.2 0.4 0.7
0.3 0.4 0.7
0.4 0.4 0.7
0.5 0.4 0.7
0.6 0.4 0.7
0.7 0.4 0.7
[...]
POINT_DATA 1331
SCALARS sol float
LOOKUP_TABLE default
-0.93306
-0.268784
0.381271
-0.155027
-0.158007
0.0467147
0.273117
-0.0133833
-0.396689
-0.160084
-0.270015
-0.232626
-0.364279
-0.225087
-0.786509
-0.329943
-0.836655
-0.172766
0.129304
-0.08953
0.96352
0.237965
-0.0912082
0.0890002
0.147683
0.176684
0.457093
0.217575
0.592256
0.31754
-0.450467
0.081811
0.82736
0.354882
-0.49583
0.110763
-0.568939
0.120584
0.967135
0.32572
0.827134
0.285418
-0.434866
0.166958
-0.0314227
0.00814971
0.984198
0.187639
0.880537
0.165459
-0.381537
-0.101313
0.551201
0.0712031
-0.118634
0.0556831
-0.362283
0.0388413
0.956633
0.395765
0.50589
0.359814
0.889169
0.317723
-0.56303
0.0963715
0.57314
0.0653867
-0.829375
-0.132665
0.902404
0.154045
-0.762604
-0.187724
-0.539385
-0.105421
0.246163
0.0649781
-0.662105
-0.0831992
0.558315
0.268381
-0.0292421
0.198035
-0.516387
0.0622728
0.808401
0.227322
-0.809418
-0.265862
0.351302
-0.0700782
-0.7288
-0.198583
0.0297216
-0.0580427
0.63381
0.117674
0.576201
0.162737
-0.856863
-0.0899385
0.802195
0.299695
0.946142
0.383661
0.586506
0.209514
-0.292377
0.0307932
-0.680994
-0.286758
-0.119241
-0.170719
0.375454
-0.0510678
0.141887
-0.0488627
-0.514299
-0.112069
-0.0511112
0.0473744
0.0289407
0.0834177
0.0774748
0.167708
0.928258
0.251966
-0.338476
-0.0484667
-0.484279
-0.133917
-0.0169369
-0.153078
0.185194
-0.0431504
-0.419274
-0.192583
-0.878489
-0.225305
-0.303899
-0.0735011
0.554287
0.226008
0.73028
0.298841
-0.0587686
0.0672231
-0.886404
-0.149118
-0.795364
-0.265538
0.263935
-0.0886914
-0.717427
-0.256723
0.292239
-0.0578084
0.0526954
-0.0499875
0.715289
0.130179
-0.241576
0.0128365
0.886332
0.325537
0.627558
0.343419
-0.284682
0.0938548
0.755408
0.126538
-0.810415
-0.261476
-0.0117208
-0.164271
-0.760564
-0.201833
-0.207968
-0.104719
0.356443
0.0229102
0.415516
0.120699
-0.769755
-0.0819943
-0.0382118
0.146757
0.908919
0.397129
0.476247
0.270147
0.5829
0.169823
-0.677439
-0.219635
-0.821711
-0.293999
0.936291
0.131849
0.699188
0.160116
-0.694973
-0.130096
0.00139421
0.0395866
0.808638
0.187765
0.222816
0.132003
0.593861
0.283799
0.597338
0.249028
0.199637
0.135159
-0.292535
-0.0891317
0.350067
-0.0313999
-0.824091
-0.159321
-0.759407
-0.126033
0.0609846
-0.0525011
0.228041
0.0593871
-0.486727
-0.0634013
-0.867119
-0.136478
-0.143968
0.0385639
-0.898766
-0.0492056
0.731214
0.205957
0.0982557
0.00568352
-0.489459
-0.153219
-0.146571
-0.108544
-0.0367581
-0.065856
-0.0837487
-0.15553
-0.133161
-0.191624
-0.0500895
-0.07156
0.101173
0.0449608
0.155439
0.141971
0.229345
0.168829
0.266446
0.197355
0.190124
0.253229
0.230787
0.1949
-0.034981
0.0293205
0.031754
-0.0505678
0.0189641
0.0743768
0.130973
0.256361
0.291553
0.22691
0.15503
-0.0392646
-0.0556378
0.0117121
-0.0922549
-0.0430596
0.00694833
0.0570009
0.184817
0.219265
0.138114
0.154203
-0.161201
-0.0891196
-0.0983359
-0.0591712
0.0326304
0.0844034
0.0421539
0.178145
0.222928
0.13283
0.0589495
-0.214321
-0.150911
-0.125835
-0.103058
-0.0222875
0.0468816
0.100217
0.153988
0.119813
0.0122132
-0.0318328
-0.164315
-0.101614
-0.137572
-0.0895584
0.010096
0.137241
0.187731
0.090185
-0.0256938
-0.112317
-0.101181
-0.159209
-0.0976241
-0.0628402
0.0269506
0.0604309
0.190142
0.233687
0.129287
0.0200223
-0.114883
-0.16147
-0.095091
-0.0413788
-0.0226054
0.0604959
0.0214363
0.142547
0.243313
0.176658
0.0631134
-0.087698
-0.156517
0.0113662
0.052488
-0.0523069
0.0289252
0.102569
0.102779
0.190712
0.160281
0.0776275
-0.0328491
-0.0865438
-0.0680386
-0.0448723
-0.0347125
0.065927
0.00120732
-0.00505005
0.0785687
0.0559176
0.104002
0.00359785
-0.0699686
-0.0774687
-0.146195
-0.0710861
-0.136332
-0.0449755
-0.0648233
-0.0998233
-0.0989916
-0.00711295
-0.0278904
0.0878195
0.0498467
0.174343
0.112923
0.128871
0.193585
0.186814
0.255391
0.22532
0.184545
0.16179
0.122212
-0.0433724
-0.0486397
0.0246338
-0.023809
0.0572904
0.13959
0.0997162
0.179206
0.221414
0.171318
0.0995631
-0.12283
-0.0477886
-0.0627087
-0.0677971
0.0144372
0.0809377
0.0423073
0.131362
0.174337
0.125897
0.0599536
-0.107169
-0.0324686
-0.0476236
0.0161728
-0.0203124
0.0449419
0.126132
0.103207
0.129324
0.0579062
0.101275
-0.15506
-0.0931382
-0.0971433
-0.0275593
0.0295491
0.105459
0.165279
0.124267
0.0515497
0.00117625
0.0298282
-0.106329
-0.042824
-0.0589635
0.00595011
0.0712098
0.155963
0.116595
0.0535786
-0.0139707
-0.0791971
-0.0433768
-0.0747347
-0.020404
0.00529854
-0.0227896
0.0348344
0.120083
0.172175
0.106884
0.0318281
-0.046359
-0.112478
-0.0166442
0.0335171
0.0426233
0.0138939
0.0965907
0.162256
0.131647
0.148696
0.0736166
-0.0121767
-0.071445
0.0424276
-0.00826345
-8.52819e-05
0.0776571
0.139237
0.103888
0.158826
0.0914687
0.0130541
0.0226018
-0.0346075
-0.012925
0.0269703
0.0506597
0.125882
0.0557342
0.025816
0.0825742
0.0297402
0.0438854
-0.0307504
0.0317033
-0.046328
-0.0876834
-0.144885
-0.0915155
-0.11507
-0.0586807
-0.0303754
0.00899864
-0.0249121
0.0256572
0.0499512
0.100539
0.117072
0.0528232
0.175691
0.126517
0.227806
0.187006
0.162758
0.119038
0.0980871
0.164425
-0.117748
-0.0462723
-0.0490292
-0.0294602
0.042215
0.105889
0.0491917
0.111744
0.161411
0.100851
0.15114
-0.0563818
0.017596
-0.0347707
-0.0966694
-0.0219228
0.0432744
0.108822
0.164318
0.0997192
0.049533
0.100762
-0.0384369
0.0315501
-0.0975108
-0.0260316
0.0308645
0.103249
0.163382
0.12272
0.0456079
0.0979564
0.0365933
-0.0907583
-0.0323513
-0.037663
0.0277018
0.0909054
0.156525
0.103836
0.0424644
0.0918153
0.0375973
0.0940547
-0.0406398
0.0197348
0.0129104
0.0786865
0.0315682
0.10384
0.0412477
0.0935531
0.031155
-0.0337446
0.0187708
0.00674985
0.0590726
-0.0378244
0.0311668
0.0958974
0.159344
0.0985387
0.146669
0.0836214
0.0169963
-0.051917
0.0522762
0.00145878
0.00814977
0.0887746
0.0386376
0.0997524
0.0407128
0.0806247
0.0142711
0.0585493
-0.00535255
0.11709
0.0610034
0.0754496
0.0324003
0.0907906
0.0311628
0.0815221
0.0204833
0.0608797
0.109929
0.0463229
0.0680162
0.116035
0.128906
0.0886513
0.0263015
0.0827044
0.131611
0.0754483
0.119049
0.0523785
0.0091135
-0.119563
-0.0502299
-0.099058
-0.0498916
-0.0580336
0.00753378
-0.01908
-0.0583481
0.0506431
-0.0217331
0.0997444
0.0477682
0.163894
0.110881
0.223684
0.167543
0.160132
0.225419
0.216014
0.16044
0.151545
0.0955399
-0.0642093
-0.120681
-0.0255885
0.044538
-0.0141224
0.0432279
0.103176
0.160889
0.215772
0.156228
0.096389
-0.0278183
-0.0567963
0.0415189
-0.0195462
0.0244661
0.0980424
0.04486
0.100845
0.154173
0.0989638
0.035397
-0.0909695
-0.0289041
-0.0213631
0.0222948
0.0827861
0.152273
0.100654
0.0431096
0.0939049
0.0341659
0.0905986
-0.0348857
0.023336
0.0236759
0.0832583
0.146637
0.0970402
0.154962
0.0923212
0.0330758
0.0903935
0.0321726
0.0220526
-0.0357697
0.0798163
0.02778
0.0919187
0.152046
0.0919485
0.146869
0.0844321
0.0224091
-0.0267248
0.0770315
0.00965513
0.0252613
0.0866358
0.147965
0.0946387
0.146821
0.0827588
0.023591
-0.0391693
-0.0984936
0.12593
0.0722968
0.0801526
0.0323784
0.0904638
0.147935
0.0855384
0.0200357
0.0651304
0.00250433
-0.0553148
0.183636
0.126761
0.136332
0.0856345
0.146403
0.0842847
0.139421
0.0779135
0.127059
0.0608018
0.00513512
0.132065
0.0711022
0.0698966
0.0217075
0.0827329
0.138706
0.0745449
0.0158389
0.0640237
0.120836
0.0716581
-0.0641069
0.0021447
-0.0548828
-0.120977
-0.0108845
-0.0627442
0.0448012
-0.0114107
0.102929
0.0442378
0.158538
0.102578
0.101997
0.16188
0.160441
0.104222
0.103126
0.161376
0.156572
0.102014
0.0990007
0.155504
-0.018905
-0.0645303
0.0448059
-0.0163047
0.0411407
0.0990438
0.157921
0.102135
0.15695
0.0973892
0.0387876
0.0434771
-0.0180957
-0.0186491
0.0240165
0.0938096
0.154346
0.09933
0.156684
0.0962002
0.15107
0.0904701
-0.0201192
0.0418729
0.0249222
0.0882993
0.147102
0.101996
0.0379444
0.0961224
0.150271
0.0900339
0.0316025
0.0263644
0.0867597
0.0864319
0.0297843
0.0896038
0.034755
0.0910223
0.148472
0.0882068
0.0294924
0.0861533
0.0821635
0.0285756
0.140827
0.0874391
0.0317838
0.0894315
0.145625
0.0888869
0.0269631
0.0809453
0.0282868
0.138907
0.0798151
0.0862769
0.030359
0.0881188
0.0299132
0.0854153
0.0252894
0.0795012
0.0186682
-0.0380573
0.190068
0.134428
0.140997
0.0866592
0.0269143
0.0847248
0.139451
0.0778506
0.132765
0.0710578
0.015143
0.127191
0.0713079
0.0825716
0.0217794
0.0830171
0.138029
0.0778456
0.132047
0.0729418
0.0153158
0.0657519
0.0711162
0.12829
0.0173543
0.0777391
0.131231
0.193948
0.131792
0.0732549
0.0144551
0.0728226
0.133004
-0.00813852
0.0552108
-0.00399075
-0.0666592
0.0441003
-0.00799979
0.104274
0.0460311
0.0439922
0.102989
0.0997148
0.0437046
0.15776
0.101313
0.100709
0.0442488
0.15684
0.10125
0.0973041
0.156204
0.0381701
0.0900694
0.0447547
-0.00999119
-0.0174702
0.0438545
0.0985797
0.0411497
0.0992178
0.156442
0.0961685
0.0383246
-0.0201695
-0.0187108
0.0439411
0.0310326
0.0915823
0.0383307
0.0979848
0.0395148
0.0953618
0.0378314
0.0925965
0.0330569
0.0309249
0.0935082
0.0900648
0.146065
0.0953494
0.0354689
-0.0200459
0.0370922
0.0909565
0.0305522
-0.0254751
0.0894687
0.0293914
0.0287307
0.0861905
0.0281521
0.0866479
0.0298836
0.0896722
0.0296381
0.0841335
0.0287027
0.140433
0.0841546
0.08387
0.0256356
0.0855565
0.0274669
0.0864073
0.0282043
0.0819063
0.0216665
-0.0350943
0.0760794
0.139048
0.0225779
-0.0324495
0.0266948
0.084617
0.140345
0.0809477
0.020785
0.0766227
0.0194823
0.128261
0.0739525
0.0758596
0.0218052
0.0797208
0.140465
0.079369
0.0204812
0.0755464
0.0175852
0.0786613
0.0733942
0.128138
0.0188802
0.0747548
0.134768
0.195018
0.13445
0.0753335
0.133733
0.075591
0.133609
0.135294
0.0732336
0.0807142
0.125018
0.193974
0.13324
0.0767432
0.134253
0.0756309
0.13286
0.0775264
0.0428408
-0.00705635
0.056238
-0.0052581
0.103935
0.0436479
0.0433732
0.103749
0.0986422
0.0428103
0.0411407
0.0995538
0.0983727
0.0413729
0.040309
-0.0168345
0.0967197
0.040436
0.0381818
0.0968178
0.0934443
0.0385392
-0.0191175
0.0431176
0.0418154
0.0920211
0.158892
0.0998207
0.0410813
0.0973604
0.0384511
0.0930426
0.0336957
0.036829
0.0996076
0.0907157
0.0296199
0.0953739
0.0459971
-0.0165066
0.0389924
0.0931537
0.0318318
-0.0261798
0.091796
0.0345104
0.0300852
0.0866268
0.0234796
-0.0176088
0.0383588
-0.023178
0.0306326
0.0859651
0.0287862
0.142255
0.0859612
0.081257
0.138296
0.0746131
0.0258223
0.0910437
0.029961
-0.0302052
0.0253636
-0.0329315
0.0776454
0.140638
0.0218757
0.0787882
0.137332
0.0837029
0.141351
0.0823428
0.0226858
0.0792831
0.0212178
0.130831
0.0766076
0.0772085
0.0208413
0.0797471
0.140727
0.0808414
0.0222827
0.0790488
0.0207467
0.0804688
0.075565
0.128583
0.140653
0.0831594
0.139687
0.0808267
0.136642
0.0781797
0.135989
0.07826
0.135069
0.139969
0.0747168
0.084097
0.134407
0.194493
0.136011
0.193581
0.134929
0.0772152
0.134479
0.0779535
0.189966
0.141292
0.134074
0.192924
0.140359
0.079709
0.136133
0.0789982
0.0198049
0.0774599
0.136231
-0.0185594
0.0413804
-0.00721992
0.0430404
0.0427499
-0.0177763
0.093195
0.0401259
0.0399047
0.0972672
-0.0169605
0.0412942
0.0401866
-0.0168699
0.0988647
0.0370404
0.153143
0.0993101
0.0938313
0.152437
0.0333533
0.0933518
0.0442353
0.106891
0.0901851
0.0294669
0.100974
0.0432796
0.101668
0.15341
0.0942927
0.0332823
0.0895666
0.0836183
0.147715
0.152383
0.0924364
0.0744964
-0.00684491
0.0469113
0.0953049
0.0333847
0.0883902
0.0298974
0.146491
0.0822042
0.0859001
0.0207472
0.0128415
0.0616353
0.093427
0.0312472
0.0876056
0.0288527
0.0864517
0.0795627
0.143417
0.135287
0.0639092
0.114197
0.089008
0.027732
-0.0286923
0.0281423
0.0839435
0.0248907
0.132169
0.0788573
0.0765033
0.0209778
0.077912
0.143393
0.0820219
0.0237471
0.0842556
0.140023
0.0812123
0.0754027
0.131413
0.018749
0.0817487
0.136666
0.0815862
0.0236762
0.0790432
0.13783
0.0801817
0.135709
0.13992
0.075288
0.0824932
0.134673
0.194603
0.137061
0.0788567
0.137319
0.0791523
0.0211026
0.0774005
0.0831351
0.13998
0.132726
0.194508
0.135281
0.194781
0.136538
0.193969
0.135806
0.0778075
0.0190148
0.132522
0.0832085
0.0681747
0.128315
0.0806098
0.138585
0.195176
0.137353
0.0785771
0.135991
0.0775227
0.0423977
-0.0171976
0.0443854
0.104353
-0.017632
0.0404275
0.0339684
-0.0211908
-0.0190209
0.0358562
0.0418691
-0.0166536
-0.0162751
0.0410315
0.0417879
0.0989986
0.0960932
0.0423528
0.0335162
0.0958892
-0.0217755
0.0378977
0.0891145
0.152276
0.0243462
0.0953289
0.0424341
-0.0102017
0.0454986
0.0969226
0.0349279
-0.0223559
0.0339925
0.150486
0.213984
0.0853085
0.0952363
0.00924369
0.0521306
-0.0180129
0.0313422
-0.0234506
0.0318383
-0.0283544
0.183802
0.145743
0.111601
0.0326131
0.0944427
0.0956812
0.0269045
0.0860625
0.0290348
0.0886068
0.0285443
0.124908
0.0785124
0.188455
0.115798
0.0445584
0.0215395
0.0842446
0.0285733
0.0870637
0.141787
0.0821245
0.0723172
0.129632
0.134409
0.0763733
0.0117615
0.0758713
0.0257029
0.0868337
0.140705
0.0809856
0.137137
0.135479
0.19369
0.0784057
0.134594
0.0731277
0.0246185
0.0784118
0.139025
0.0808606
0.0216678
0.0772788
0.190805
0.138735
0.132673
0.193265
0.131819
0.0803466
0.138261
0.195009
0.136756
0.0783066
0.135918
0.132358
0.0822077
0.194162
0.132477
0.0804983
0.138976
0.0796798
0.13659
0.194116
0.13595
0.0773561
0.0680167
0.132843
0.128631
0.082908
0.140681
0.197415
0.137842
0.19515
0.136683
0.0787604
0.0211249
