# vtk DataFile Version 3.0
description of the mesh
ASCII
DATASET UNSTRUCTURED_GRID
POINTS 216 float
0.2 0.2 0
0.2 0.2 0.2
0 0 0
0.2 0 0
0.2 0 0.2
0 0 0.2
0 0.2 0
0 0.2 0.2
0.4 0.2 0
0.4 0.2 0.2
0.4 0 0
0.4 0 0.2
0.6 0.2 0
0.6 0.2 0.2
0.6 0 0
0.6 0 0.2
0.8 0.2 0
0.8 0.2 0.2
0.8 0 0
0.8 0 0.2
1 0.2 0
1 0.2 0.2
1 0 0
1 0 0.2
0.2 0.4 0
0.2 0.4 0.2
0 0.4 0
0 0.4 0.2
0.4 0.4 0
0.4 0.4 0.2
0.6 0.4 0
0.6 0.4 0.2
0.8 0.4 0
0.8 0.4 0.2
1 0.4 0
1 0.4 0.2
0.2 0.6 0
0.2 0.6 0.2
0 0.6 0
0 0.6 0.2
0.4 0.6 0
0.4 0.6 0.2
0.6 0.6 0
0.6 0.6 0.2
0.8 0.6 0
0.8 0.6 0.2
1 0.6 0
1 0.6 0.2
0.2 0.8 0
0.2 0.8 0.2
0 0.8 0
0 0.8 0.2
0.4 0.8 0
0.4 0.8 0.2
0.6 0.8 0
0.6 0.8 0.2
0.8 0.8 0
0.8 0.8 0.2
1 0.8 0
1 0.8 0.2
0.2 1 0
0.2 1 0.2
0 1 0
0 1 0.2
0.4 1 0
0.4 1 0.2
0.6 1 0
0.6 1 0.2
0.8 1 0
0.8 1 0.2
1 1 0
1 1 0.2
0.2 0.2 0.4
0.2 0 0.4
0 0 0.4
0 0.2 0.4
0.4 0.2 0.4
0.4 0 0.4
0.6 0.2 0.4
0.6 0 0.4
0.8 0.2 0.4
0.8 0 0.4
1 0.2 0.4
1 0 0.4
0.2 0.4 0.4
0 0.4 0.4
0.4 0.4 0.4
0.6 0.4 0.4
0.8 0.4 0.4
1 0.4 0.4
0.2 0.6 0.4
0 0.6 0.4
0.4 0.6 0.4
0.6 0.6 0.4
0.8 0.6 0.4
1 0.6 0.4
0.2 0.8 0.4
0 0.8 0.4
0.4 0.8 0.4
0.6 0.8 0.4
0.8 0.8 0.4
1 0.8 0.4
0.2 1 0.4
0 1 0.4
0.4 1 0.4
0.6 1 0.4
0.8 1 0.4
1 1 0.4
0.2 0.2 0.6
0.2 0 0.6
0 0 0.6
0 0.2 0.6
0.4 0.2 0.6
0.4 0 0.6
0.6 0.2 0.6
0.6 0 0.6
0.8 0.2 0.6
0.8 0 0.6
1 0.2 0.6
1 0 0.6
0.2 0.4 0.6
0 0.4 0.6
0.4 0.4 0.6
0.6 0.4 0.6
0.8 0.4 0.6
1 0.4 0.6
0.2 0.6 0.6
0 0.6 0.6
0.4 0.6 0.6
0.6 0.6 0.6
0.8 0.6 0.6
1 0.6 0.6
0.2 0.8 0.6
0 0.8 0.6
0.4 0.8 0.6
0.6 0.8 0.6
0.8 0.8 0.6
1 0.8 0.6
0.2 1 0.6
0 1 0.6
0.4 1 0.6
0.6 1 0.6
0.8 1 0.6
1 1 0.6
0.2 0.2 0.8
0.2 0 0.8
0 0 0.8
0 0.2 0.8
0.4 0.2 0.8
0.4 0 0.8
0.6 0.2 0.8
0.6 0 0.8
0.8 0.2 0.8
0.8 0 0.8
1 0.2 0.8
1 0 0.8
0.2 0.4 0.8
0 0.4 0.8
0.4 0.4 0.8
0.6 0.4 0.8
0.8 0.4 0.8
1 0.4 0.8
0.2 0.6 0.8
0 0.6 0.8
0.4 0.6 0.8
0.6 0.6 0.8
0.8 0.6 0.8
1 0.6 0.8
0.2 0.8 0.8
0 0.8 0.8
0.4 0.8 0.8
0.6 0.8 0.8
0.8 0.8 0.8
1 0.8 0.8
0.2 1 0.8
0 1 0.8
0.4 1 0.8
0.6 1 0.8
0.8 1 0.8
1 1 0.8
0.2 0.2 1
0.2 0 1
0 0 1
0 0.2 1
0.4 0.2 1
0.4 0 1
0.6 0.2 1
0.6 0 1
0.8 0.2 1
0.8 0 1
1 0.2 1
1 0 1
0.2 0.4 1
0 0.4 1
0.4 0.4 1
0.6 0.4 1
0.8 0.4 1
1 0.4 1
0.2 0.6 1
0 0.6 1
0.4 0.6 1
0.6 0.6 1
0.8 0.6 1
1 0.6 1
0.2 0.8 1
0 0.8 1
0.4 0.8 1
0.6 0.8 1
0.8 0.8 1
1 0.8 1
0.2 1 1
0 1 1
0.4 1 1
0.6 1 1
0.8 1 1
1 1 1
CELLS 750 3750
4 0 1 2 3 
4 1 2 4 5 
4 1 2 3 4 
4 0 1 2 6 
4 7 1 2 5 
4 7 1 2 6 
4 8 9 3 10 
4 9 3 11 4 
4 9 3 10 11 
4 8 9 3 0 
4 1 9 3 4 
4 1 9 3 0 
4 12 13 10 14 
4 13 10 15 11 
4 13 10 14 15 
4 12 13 10 8 
4 9 13 10 11 
4 9 13 10 8 
4 16 17 14 18 
4 17 14 19 15 
4 17 14 18 19 
4 16 17 14 12 
4 13 17 14 15 
4 13 17 14 12 
4 20 21 18 22 
4 21 18 23 19 
4 21 18 22 23 
4 20 21 18 16 
4 17 21 18 19 
4 17 21 18 16 
4 24 25 6 0 
4 25 6 1 7 
4 25 6 0 1 
4 24 25 6 26 
4 27 25 6 7 
4 27 25 6 26 
4 28 29 0 8 
4 29 0 9 1 
4 29 0 8 9 
4 28 29 0 24 
4 25 29 0 1 
4 25 29 0 24 
4 30 31 8 12 
4 31 8 13 9 
4 31 8 12 13 
4 30 31 8 28 
4 29 31 8 9 
4 29 31 8 28 
4 32 33 12 16 
4 33 12 17 13 
4 33 12 16 17 
4 32 33 12 30 
4 31 33 12 13 
4 31 33 12 30 
4 34 35 16 20 
4 35 16 21 17 
4 35 16 20 21 
4 34 35 16 32 
4 33 35 16 17 
4 33 35 16 32 
4 36 37 26 24 
4 37 26 25 27 
4 37 26 24 25 
4 36 37 26 38 
4 39 37 26 27 
4 39 37 26 38 
4 40 41 24 28 
4 41 24 29 25 
4 41 24 28 29 
4 40 41 24 36 
4 37 41 24 25 
4 37 41 24 36 
4 42 43 28 30 
4 43 28 31 29 
4 43 28 30 31 
4 42 43 28 40 
4 41 43 28 29 
4 41 43 28 40 
4 44 45 30 32 
4 45 30 33 31 
4 45 30 32 33 
4 44 45 30 42 
4 43 45 30 31 
4 43 45 30 42 
4 46 47 32 34 
4 47 32 35 33 
4 47 32 34 35 
4 46 47 32 44 
4 45 47 32 33 
4 45 47 32 44 
4 48 49 38 36 
4 49 38 37 39 
4 49 38 36 37 
4 48 49 38 50 
4 51 49 38 39 
4 51 49 38 50 
4 52 53 36 40 
4 53 36 41 37 
4 53 36 40 41 
4 52 53 36 48 
4 49 53 36 37 
4 49 53 36 48 
4 54 55 40 42 
4 55 40 43 41 
4 55 40 42 43 
4 54 55 40 52 
4 53 55 40 41 
4 53 55 40 52 
4 56 57 42 44 
4 57 42 45 43 
4 57 42 44 45 
4 56 57 42 54 
4 55 57 42 43 
4 55 57 42 54 
4 58 59 44 46 
4 59 44 47 45 
4 59 44 46 47 
4 58 59 44 56 
4 57 59 44 45 
4 57 59 44 56 
4 60 61 50 48 
4 61 50 49 51 
4 61 50 48 49 
4 60 61 50 62 
4 63 61 50 51 
4 63 61 50 62 
4 64 65 48 52 
4 65 48 53 49 
4 65 48 52 53 
4 64 65 48 60 
4 61 65 48 49 
4 61 65 48 60 
4 66 67 52 54 
4 67 52 55 53 
4 67 52 54 55 
4 66 67 52 64 
4 65 67 52 53 
4 65 67 52 64 
4 68 69 54 56 
4 69 54 57 55 
4 69 54 56 57 
4 68 69 54 66 
4 67 69 54 55 
4 67 69 54 66 
4 70 71 56 58 
4 71 56 59 57 
4 71 56 58 59 
4 70 71 56 68 
4 69 71 56 57 
4 69 71 56 68 
4 1 72 5 4 
4 72 5 73 74 
4 72 5 4 73 
4 1 72 5 7 
4 75 72 5 74 
4 75 72 5 7 
4 9 76 4 11 
4 76 4 77 73 
4 76 4 11 77 
4 9 76 4 1 
4 72 76 4 73 
4 72 76 4 1 
4 13 78 11 15 
4 78 11 79 77 
4 78 11 15 79 
4 13 78 11 9 
4 76 78 11 77 
4 76 78 11 9 
4 17 80 15 19 
4 80 15 81 79 
4 80 15 19 81 
4 17 80 15 13 
4 78 80 15 79 
4 78 80 15 13 
4 21 82 19 23 
4 82 19 83 81 
4 82 19 23 83 
4 21 82 19 17 
4 80 82 19 81 
4 80 82 19 17 
4 25 84 7 1 
4 84 7 72 75 
4 84 7 1 72 
4 25 84 7 27 
4 85 84 7 75 
4 85 84 7 27 
4 29 86 1 9 
4 86 1 76 72 
4 86 1 9 76 
4 29 86 1 25 
4 84 86 1 72 
4 84 86 1 25 
4 31 87 9 13 
4 87 9 78 76 
4 87 9 13 78 
4 31 87 9 29 
4 86 87 9 76 
4 86 87 9 29 
4 33 88 13 17 
4 88 13 80 78 
4 88 13 17 80 
4 33 88 13 31 
4 87 88 13 78 
4 87 88 13 31 
4 35 89 17 21 
4 89 17 82 80 
4 89 17 21 82 
4 35 89 17 33 
4 88 89 17 80 
4 88 89 17 33 
4 37 90 27 25 
4 90 27 84 85 
4 90 27 25 84 
4 37 90 27 39 
4 91 90 27 85 
4 91 90 27 39 
4 41 92 25 29 
4 92 25 86 84 
4 92 25 29 86 
4 41 92 25 37 
4 90 92 25 84 
4 90 92 25 37 
4 43 93 29 31 
4 93 29 87 86 
4 93 29 31 87 
4 43 93 29 41 
4 92 93 29 86 
4 92 93 29 41 
4 45 94 31 33 
4 94 31 88 87 
4 94 31 33 88 
4 45 94 31 43 
4 93 94 31 87 
4 93 94 31 43 
4 47 95 33 35 
4 95 33 89 88 
4 95 33 35 89 
4 47 95 33 45 
4 94 95 33 88 
4 94 95 33 45 
4 49 96 39 37 
4 96 39 90 91 
4 96 39 37 90 
4 49 96 39 51 
4 97 96 39 91 
4 97 96 39 51 
4 53 98 37 41 
4 98 37 92 90 
4 98 37 41 92 
4 53 98 37 49 
4 96 98 37 90 
4 96 98 37 49 
4 55 99 41 43 
4 99 41 93 92 
4 99 41 43 93 
4 55 99 41 53 
4 98 99 41 92 
4 98 99 41 53 
4 57 100 43 45 
4 100 43 94 93 
4 100 43 45 94 
4 57 100 43 55 
4 99 100 43 93 
4 99 100 43 55 
4 59 101 45 47 
4 101 45 95 94 
4 101 45 47 95 
4 59 101 45 57 
4 100 101 45 94 
4 100 101 45 57 
4 61 102 51 49 
4 102 51 96 97 
4 102 51 49 96 
4 61 102 51 63 
4 103 102 51 97 
4 103 102 51 63 
4 65 104 49 53 
4 104 49 98 96 
4 104 49 53 98 
4 65 104 49 61 
4 102 104 49 96 
4 102 104 49 61 
4 67 105 53 55 
4 105 53 99 98 
4 105 53 55 99 
4 67 105 53 65 
4 104 105 53 98 
4 104 105 53 65 
4 69 106 55 57 
4 106 55 100 99 
4 106 55 57 100 
4 69 106 55 67 
4 105 106 55 99 
4 105 106 55 67 
4 71 107 57 59 
4 107 57 101 100 
4 107 57 59 101 
4 71 107 57 69 
4 106 107 57 100 
4 106 107 57 69 
4 72 108 74 73 
4 108 74 109 110 
4 108 74 73 109 
4 72 108 74 75 
4 111 108 74 110 
4 111 108 74 75 
4 76 112 73 77 
4 112 73 113 109 
4 112 73 77 113 
4 76 112 73 72 
4 108 112 73 109 
4 108 112 73 72 
4 78 114 77 79 
4 114 77 115 113 
4 114 77 79 115 
4 78 114 77 76 
4 112 114 77 113 
4 112 114 77 76 
4 80 116 79 81 
4 116 79 117 115 
4 116 79 81 117 
4 80 116 79 78 
4 114 116 79 115 
4 114 116 79 78 
4 82 118 81 83 
4 118 81 119 117 
4 118 81 83 119 
4 82 118 81 80 
4 116 118 81 117 
4 116 118 81 80 
4 84 120 75 72 
4 120 75 108 111 
4 120 75 72 108 
4 84 120 75 85 
4 121 120 75 111 
4 121 120 75 85 
4 86 122 72 76 
4 122 72 112 108 
4 122 72 76 112 
4 86 122 72 84 
4 120 122 72 108 
4 120 122 72 84 
4 87 123 76 78 
4 123 76 114 112 
4 123 76 78 114 
4 87 123 76 86 
4 122 123 76 112 
4 122 123 76 86 
4 88 124 78 80 
4 124 78 116 114 
4 124 78 80 116 
4 88 124 78 87 
4 123 124 78 114 
4 123 124 78 87 
4 89 125 80 82 
4 125 80 118 116 
4 125 80 82 118 
4 89 125 80 88 
4 124 125 80 116 
4 124 125 80 88 
4 90 126 85 84 
4 126 85 120 121 
4 126 85 84 120 
4 90 126 85 91 
4 127 126 85 121 
4 127 126 85 91 
4 92 128 84 86 
4 128 84 122 120 
4 128 84 86 122 
4 92 128 84 90 
4 126 128 84 120 
4 126 128 84 90 
4 93 129 86 87 
4 129 86 123 122 
4 129 86 87 123 
4 93 129 86 92 
4 128 129 86 122 
4 128 129 86 92 
4 94 130 87 88 
4 130 87 124 123 
4 130 87 88 124 
4 94 130 87 93 
4 129 130 87 123 
4 129 130 87 93 
4 95 131 88 89 
4 131 88 125 124 
4 131 88 89 125 
4 95 131 88 94 
4 130 131 88 124 
4 130 131 88 94 
4 96 132 91 90 
4 132 91 126 127 
4 132 91 90 126 
4 96 132 91 97 
4 133 132 91 127 
4 133 132 91 97 
4 98 134 90 92 
4 134 90 128 126 
4 134 90 92 128 
4 98 134 90 96 
4 132 134 90 126 
4 132 134 90 96 
4 99 135 92 93 
4 135 92 129 128 
4 135 92 93 129 
4 99 135 92 98 
4 134 135 92 128 
4 134 135 92 98 
4 100 136 93 94 
4 136 93 130 129 
4 136 93 94 130 
4 100 136 93 99 
4 135 136 93 129 
4 135 136 93 99 
4 101 137 94 95 
4 137 94 131 130 
4 137 94 95 131 
4 101 137 94 100 
4 136 137 94 130 
4 136 137 94 100 
4 102 138 97 96 
4 138 97 132 133 
4 138 97 96 132 
4 102 138 97 103 
4 139 138 97 133 
4 139 138 97 103 
4 104 140 96 98 
4 140 96 134 132 
4 140 96 98 134 
4 104 140 96 102 
4 138 140 96 132 
4 138 140 96 102 
4 105 141 98 99 
4 141 98 135 134 
4 141 98 99 135 
4 105 141 98 104 
4 140 141 98 134 
4 140 141 98 104 
4 106 142 99 100 
4 142 99 136 135 
4 142 99 100 136 
4 106 142 99 105 
4 141 142 99 135 
4 141 142 99 105 
4 107 143 100 101 
4 143 100 137 136 
4 143 100 101 137 
4 107 143 100 106 
4 142 143 100 136 
4 142 143 100 106 
4 108 144 110 109 
4 144 110 145 146 
4 144 110 109 145 
4 108 144 110 111 
4 147 144 110 146 
4 147 144 110 111 
4 112 148 109 113 
4 148 109 149 145 
4 148 109 113 149 
4 112 148 109 108 
4 144 148 109 145 
4 144 148 109 108 
4 114 150 113 115 
4 150 113 151 149 
4 150 113 115 151 
4 114 150 113 112 
4 148 150 113 149 
4 148 150 113 112 
4 116 152 115 117 
4 152 115 153 151 
4 152 115 117 153 
4 116 152 115 114 
4 150 152 115 151 
4 150 152 115 114 
4 118 154 117 119 
4 154 117 155 153 
4 154 117 119 155 
4 118 154 117 116 
4 152 154 117 153 
4 152 154 117 116 
4 120 156 111 108 
4 156 111 144 147 
4 156 111 108 144 
4 120 156 111 121 
4 157 156 111 147 
4 157 156 111 121 
4 122 158 108 112 
4 158 108 148 144 
4 158 108 112 148 
4 122 158 108 120 
4 156 158 108 144 
4 156 158 108 120 
4 123 159 112 114 
4 159 112 150 148 
4 159 112 114 150 
4 123 159 112 122 
4 158 159 112 148 
4 158 159 112 122 
4 124 160 114 116 
4 160 114 152 150 
4 160 114 116 152 
4 124 160 114 123 
4 159 160 114 150 
4 159 160 114 123 
4 125 161 116 118 
4 161 116 154 152 
4 161 116 118 154 
4 125 161 116 124 
4 160 161 116 152 
4 160 161 116 124 
4 126 162 121 120 
4 162 121 156 157 
4 162 121 120 156 
4 126 162 121 127 
4 163 162 121 157 
4 163 162 121 127 
4 128 164 120 122 
4 164 120 158 156 
4 164 120 122 158 
4 128 164 120 126 
4 162 164 120 156 
4 162 164 120 126 
4 129 165 122 123 
4 165 122 159 158 
4 165 122 123 159 
4 129 165 122 128 
4 164 165 122 158 
4 164 165 122 128 
4 130 166 123 124 
4 166 123 160 159 
4 166 123 124 160 
4 130 166 123 129 
4 165 166 123 159 
4 165 166 123 129 
4 131 167 124 125 
4 167 124 161 160 
4 167 124 125 161 
4 131 167 124 130 
4 166 167 124 160 
4 166 167 124 130 
4 132 168 127 126 
4 168 127 162 163 
4 168 127 126 162 
4 132 168 127 133 
4 169 168 127 163 
4 169 168 127 133 
4 134 170 126 128 
4 170 126 164 162 
4 170 126 128 164 
4 134 170 126 132 
4 168 170 126 162 
4 168 170 126 132 
4 135 171 128 129 
4 171 128 165 164 
4 171 128 129 165 
4 135 171 128 134 
4 170 171 128 164 
4 170 171 128 134 
4 136 172 129 130 
4 172 129 166 165 
4 172 129 130 166 
4 136 172 129 135 
4 171 172 129 165 
4 171 172 129 135 
4 137 173 130 131 
4 173 130 167 166 
4 173 130 131 167 
4 137 173 130 136 
4 172 173 130 166 
4 172 173 130 136 
4 138 174 133 132 
4 174 133 168 169 
4 174 133 132 168 
4 138 174 133 139 
4 175 174 133 169 
4 175 174 133 139 
4 140 176 132 134 
4 176 132 170 168 
4 176 132 134 170 
4 140 176 132 138 
4 174 176 132 168 
4 174 176 132 138 
4 141 177 134 135 
4 177 134 171 170 
4 177 134 135 171 
4 141 177 134 140 
4 176 177 134 170 
4 176 177 134 140 
4 142 178 135 136 
4 178 135 172 171 
4 178 135 136 172 
4 142 178 135 141 
4 177 178 135 171 
4 177 178 135 141 
4 143 179 136 137 
4 179 136 173 172 
4 179 136 137 173 
4 143 179 136 142 
4 178 179 136 172 
4 178 179 136 142 
4 144 180 146 145 
4 180 146 181 182 
4 180 146 145 181 
4 144 180 146 147 
4 183 180 146 182 
4 183 180 146 147 
4 148 184 145 149 
4 184 145 185 181 
4 184 145 149 185 
4 148 184 145 144 
4 180 184 145 181 
4 180 184 145 144 
4 150 186 149 151 
4 186 149 187 185 
4 186 149 151 187 
4 150 186 149 148 
4 184 186 149 185 
4 184 186 149 148 
4 152 188 151 153 
4 188 151 189 187 
4 188 151 153 189 
4 152 188 151 150 
4 186 188 151 187 
4 186 188 151 150 
4 154 190 153 155 
4 190 153 191 189 
4 190 153 155 191 
4 154 190 153 152 
4 188 190 153 189 
4 188 190 153 152 
4 156 192 147 144 
4 192 147 180 183 
4 192 147 144 180 
4 156 192 147 157 
4 193 192 147 183 
4 193 192 147 157 
4 158 194 144 148 
4 194 144 184 180 
4 194 144 148 184 
4 158 194 144 156 
4 192 194 144 180 
4 192 194 144 156 
4 159 195 148 150 
4 195 148 186 184 
4 195 148 150 186 
4 159 195 148 158 
4 194 195 148 184 
4 194 195 148 158 
4 160 196 150 152 
4 196 150 188 186 
4 196 150 152 188 
4 160 196 150 159 
4 195 196 150 186 
4 195 196 150 159 
4 161 197 152 154 
4 197 152 190 188 
4 197 152 154 190 
4 161 197 152 160 
4 196 197 152 188 
4 196 197 152 160 
4 162 198 157 156 
4 198 157 192 193 
4 198 157 156 192 
4 162 198 157 163 
4 199 198 157 193 
4 199 198 157 163 
4 164 200 156 158 
4 200 156 194 192 
4 200 156 158 194 
4 164 200 156 162 
4 198 200 156 192 
4 198 200 156 162 
4 165 201 158 159 
4 201 158 195 194 
4 201 158 159 195 
4 165 201 158 164 
4 200 201 158 194 
4 200 201 158 164 
4 166 202 159 160 
4 202 159 196 195 
4 202 159 160 196 
4 166 202 159 165 
4 201 202 159 195 
4 201 202 159 165 
4 167 203 160 161 
4 203 160 197 196 
4 203 160 161 197 
4 167 203 160 166 
4 202 203 160 196 
4 202 203 160 166 
4 168 204 163 162 
4 204 163 198 199 
4 204 163 162 198 
4 168 204 163 169 
4 205 204 163 199 
4 205 204 163 169 
4 170 206 162 164 
4 206 162 200 198 
4 206 162 164 200 
4 170 206 162 168 
4 204 206 162 198 
4 204 206 162 168 
4 171 207 164 165 
4 207 164 201 200 
4 207 164 165 201 
4 171 207 164 170 
4 206 207 164 200 
4 206 207 164 170 
4 172 208 165 166 
4 208 165 202 201 
4 208 165 166 202 
4 172 208 165 171 
4 207 208 165 201 
4 207 208 165 171 
4 173 209 166 167 
4 209 166 203 202 
4 209 166 167 203 
4 173 209 166 172 
4 208 209 166 202 
4 208 209 166 172 
4 174 210 169 168 
4 210 169 204 205 
4 210 169 168 204 
4 174 210 169 175 
4 211 210 169 205 
4 211 210 169 175 
4 176 212 168 170 
4 212 168 206 204 
4 212 168 170 206 
4 176 212 168 174 
4 210 212 168 204 
4 210 212 168 174 
4 177 213 170 171 
4 213 170 207 206 
4 213 170 171 207 
4 177 213 170 176 
4 212 213 170 206 
4 212 213 170 176 
4 178 214 171 172 
4 214 171 208 207 
4 214 171 172 208 
4 178 214 171 177 
4 213 214 171 207 
4 213 214 171 177 
4 179 215 172 173 
4 215 172 209 208 
4 215 172 173 209 
4 179 215 172 178 
4 214 215 172 208 
4 214 215 172 178 
CELL_TYPES 750
10
10
10
10
10
10
10
10
10
10
10
10
10
10
10
10
10
10
10
10
10
10
10
10
10
10
10
10
10
10
10
10
10
10
10
10
10
10
10
10
10
10
10
10
10
10
10
10
10
10
10
10
10
10
10
10
10
10
10
10
10
10
10
10
10
10
10
10
10
10
10
10
10
10
10
10
10
10
10
10
10
10
10
10
10
10
10
10
10
10
10
10
10
10
10
10
10
10
10
10
10
10
10
10
10
10
10
10
10
10
10
10
10
10
10
10
10
10
10
10
10
10
10
10
10
10
10
10
10
10
10
10
10
10
10
10
10
10
10
10
10
10
10
10
10
10
10
10
10
10
10
10
10
10
10
10
10
10
10
10
10
10
10
10
10
10
10
10
10
10
10
10
10
10
10
10
10
10
10
10
10
10
10
10
10
10
10
10
10
10
10
10
10
10
10
10
10
10
10
10
10
10
10
10
10
10
10
10
10
10
10
10
10
10
10
10
10
10
10
10
10
10
10
10
10
10
10
10
10
10
10
10
10
10
10
10
10
10
10
10
10
10
10
10
10
10
10
10
10
10
10
10
10
10
10
10
10
10
10
10
10
10
10
10
10
10
10
10
10
10
10
10
10
10
10
10
10
10
10
10
10
10
10
10
10
10
10
10
10
10
10
10
10
10
10
10
10
10
10
10
10
10
10
10
10
10
10
10
10
10
10
10
10
10
10
10
10
10
10
10
10
10
10
10
10
10
10
10
10
10
10
10
10
10
10
10
10
10
10
10
10
10
10
10
10
10
10
10
10
10
10
10
10
10
10
10
10
10
10
10
10
10
10
10
10
10
10
10
10
10
10
10
10
10
10
10
10
10
10
10
10
10
10
10
10
10
10
10
10
10
10
10
10
10
10
10
10
10
10
10
10
10
10
10
10
10
10
10
10
10
10
10
10
10
10
10
10
10
10
10
10
10
10
10
10
10
10
10
10
10
10
10
10
10
10
10
10
10
10
10
10
10
10
10
10
10
10
10
10
10
10
10
10
10
10
10
10
10
10
10
10
10
10
10
10
10
10
10
10
10
10
10
10
10
10
10
10
10
10
10
10
10
10
10
10
10
10
10
10
10
10
10
10
10
10
10
10
10
10
10
10
10
10
10
10
10
10
10
10
10
10
10
10
10
10
10
10
10
10
10
10
10
10
10
10
10
10
10
10
10
10
10
10
10
10
10
10
10
10
10
10
10
10
10
10
10
10
10
10
10
10
10
10
10
10
10
10
10
10
10
10
10
10
10
10
10
10
10
10
10
10
10
10
10
10
10
10
10
10
10
10
10
10
10
10
10
10
10
10
10
10
10
10
10
10
10
10
10
10
10
10
10
10
10
10
10
10
10
10
10
10
10
10
10
10
10
10
10
10
10
10
10
10
10
10
10
10
10
10
10
10
10
10
10
10
10
10
10
10
10
10
10
10
10
10
10
10
10
10
10
10
10
10
10
10
10
10
10
10
10
10
10
10
10
10
10
10
10
10
10
10
10
10
10
10
10
10
10
10
10
10
10
10
10
10
10
10
10
10
10
10
10
10
10
10
10
10
10
10
10
10
10
10
10
10
10
10
10
10
10
10
10
10
10
10
10
10
10
10
10
10
10
10
10
10
10
10
10
10
10
10
10
10
10
10
10
10
10
10
10
10
10
10
10
10
10
10
10
10
10
POINT_DATA 216
SCALARS sol float
LOOKUP_TABLE default
3.98595e-42
0.199298
1.33755e-42
2.00343e-42
0.200343
0.200633
2.00343e-42
0.200343
3.99296e-42
0.199648
2.01085e-42
0.201085
3.99081e-42
0.19954
2.00966e-42
0.200966
3.98165e-42
0.199082
2.00392e-42
0.200392
2.00676e-42
0.200676
6.74268e-43
0.20228
3.99296e-42
0.199648
2.01085e-42
0.201085
3.99919e-42
0.199959
3.9971e-42
0.199855
3.98943e-42
0.199471
2.012e-42
0.2012
3.99081e-42
0.19954
2.00966e-42
0.200966
3.9971e-42
0.199855
3.99526e-42
0.199763
3.98927e-42
0.199463
2.01333e-42
0.201333
3.98165e-42
0.199082
2.00392e-42
0.200392
3.98943e-42
0.199471
3.98927e-42
0.199463
3.9791e-42
0.198955
2.00582e-42
0.200582
2.00676e-42
0.200676
6.74268e-43
0.20228
2.012e-42
0.2012
2.01333e-42
0.201333
2.00582e-42
0.200582
1.33919e-42
0.200878
0.398664
0.400642
0.40119
0.400642
0.399328
0.402045
0.399124
0.401824
0.39824
0.400703
0.401266
0.404365
0.399328
0.402045
0.399922
0.399725
0.398979
0.402281
0.399124
0.401824
0.399725
0.399552
0.398964
0.402529
0.39824
0.400703
0.398979
0.398964
0.397997
0.401098
0.401266
0.404365
0.402281
0.402529
0.401098
0.401669
0.598157
0.600865
0.601609
0.600865
0.599066
0.60278
0.598787
0.602485
0.597547
0.600887
0.601683
0.606039
0.599066
0.60278
0.599892
0.599624
0.598565
0.603126
0.598787
0.602485
0.599624
0.599389
0.598544
0.603453
0.597547
0.600887
0.598565
0.598544
0.597215
0.601477
0.601683
0.606039
0.603126
0.603453
0.601477
0.60229
0.797824
0.800993
0.801848
0.800993
0.798884
0.803218
0.798557
0.802884
0.797071
0.800941
0.801876
0.807084
0.798884
0.803218
0.799872
0.799559
0.798274
0.803639
0.798557
0.802884
0.799559
0.799286
0.798248
0.804006
0.797071
0.800941
0.798274
0.798248
0.796688
0.80167
0.801876
0.807084
0.803639
0.804006
0.80167
0.802678
0.997694
1.00102
1.00188
1.00102
0.998802
1.00332
0.998456
1.00298
0.996863
1.00089
1.00184
1.00732
0.998802
1.00332
0.999864
0.999536
0.99814
1.00376
0.998456
1.00298
0.999536
0.999249
0.998112
1.00413
0.996863
1.00089
0.99814
0.998112
0.996472
1.00166
1.00184
1.00732
1.00376
1.00413
1.00166
1.00279
