# vtk DataFile Version 3.0
Tetrahedral mesh example
ASCII
DATASET UNSTRUCTURED_GRID
POINTS 5 float
0.0 0.0 0.0
1.0 0.0 0.0
0.0 1.0 0.0
0.0 0.0 1.0
1.0 1.0 1.0
CELLS 2 10
4 0 1 2 3
4 1 2 3 4
CELL_TYPES 2
10
10
POINT_DATA 5
SCALARS sol float
LOOKUP_TABLE default
2.38095e-42
2.97619e-42
2.97619e-42
0.142857
0.214286
